# LAMMPS data file 

2 atoms
1 atom types

-6.0 6.0 xlo xhi
-6.0 6.0 ylo yhi
-6.0 6.0 zlo zhi

Atoms

1 1 0.0 0.0 -2.5503827643141865
2 1 0.0 0.0 -3.4496172356857975

Velocities

1 0.0 0.0 0.010119524710413767
2 0.0 0.0 -0.010119524710413767
