# LAMMPS data file 

2 atoms
1 atom types

-6.0 6.0 xlo xhi
-6.0 6.0 ylo yhi
-6.0 6.0 zlo zhi

Atoms

1 1 0.0 0.0 1.0
2 1 0.0 0.0 5.0

Velocities

1 0.0 0.0 0.0045591837586768874
2 0.0 0.0 -0.0045591837586768874
