# LAMMPS data file 

25 atoms
1 atom types

-6.0 6.0 xlo xhi
-6.0 6.0 ylo yhi
-6.0 6.0 zlo zhi

Atoms

1 1 -3.394216640167551 -2.285245416755547 3.4400399838181936
2 1 5.505026905020927 5.698892063969904 3.274946106826624
3 1 -3.0133645816689 2.7615923892639707 2.020164673879716
4 1 3.86267006692721 1.9538671090167448 -1.815905578575709
5 1 -0.4724260950355994 -3.7220333051079013 -1.2087786461886765
6 1 -2.180406589937911 -4.759876249939269 -4.106532130512253
7 1 -0.328591277051828 2.6669523449743977 -5.041987705757588
8 1 4.305250010050914 5.194124257423617 2.325684161848587
9 1 -1.9497809606325385 -0.6602792365639267 4.217125114677289
10 1 -5.579801489316127 0.8643445205447993 1.5109038376684465
11 1 -4.901492979054231 4.943374565237637 1.8560747971332479
12 1 -0.2286686645144087 -1.182741286662786 3.1554150546688984
13 1 -2.9625860025619035 -1.523466433116237 -0.4887335842662708
14 1 4.687539524828319 -2.508753475070953 4.407039356083601
15 1 -3.7275717025973374 -3.2650845883492186 5.281019431322836
16 1 5.122991560046026 -0.9521599524365865 1.3866496724165742
17 1 -3.9479558084618773 2.5554428653994563 -4.085167766184979
18 1 -4.765066706195638 0.849984271621941 -0.5540335590017609
19 1 5.6773782389040655 -0.08741315690449891 2.231440018644985
20 1 -3.992738448969029 4.149027076229967 4.231202067713356
21 1 0.04903484919225676 -4.811562030033331 -1.8046431794526105
22 1 -3.7047253945196235 4.335835720066555 2.5335245018034342
23 1 2.458063522918538 1.0676322080264962 1.2454804314029113
24 1 -0.31192882523949894 -2.6286475949131276 3.310076162666965
25 1 1.9042163206662739 5.16836976155928 2.1607437924664836

Velocities

1 -0.0016186541550712327 0.00097655688677744 0.018287068283161075
2 -0.0011681060950257986 -0.009001994699276046 -0.0073220154848507475
3 -0.008354441717507072 -0.0015225672163194492 -0.007196656441578165
4 -0.007086228207630792 -0.00023190776462698936 0.011619522085216896
5 0.004750327125654249 -0.0004401169409937867 -0.009376403738542547
6 0.024164966719576395 -0.0063012858420793665 0.0012107669238861883
7 -0.0010824978356499038 -0.011785695849512355 0.0076313760624597896
8 0.002341772178912184 -0.006079916765990007 0.011764553205408389
9 -0.0027367521856356486 0.0013307890305826547 0.006924179266675271
10 -0.0010702105545390697 -0.0020526947484246555 0.006816985674033201
11 0.003902189482596202 -0.0024417847177567375 -0.01836924059032525
12 0.0004864428313689121 0.012054774116135654 0.0028270664616401224
13 -0.011257123594692536 -0.015032303493957523 0.0033016182397603
14 -0.00954357804663256 -0.0061553751888991015 0.00010298032670984512
15 -0.0073590196513851165 0.007272060146510617 0.0033372798488423634
16 0.015104853356077435 0.0080429981790658 -0.010516061068475411
17 0.007705524517950528 0.0032495806190738826 -0.005850236836509212
18 0.0015128036971185533 -0.0014332308389176781 -0.015624952091912735
19 0.012695404888169575 0.00057823383960079 0.012893644015811775
20 0.00010257847587344089 -0.003782776318080759 -0.005881833896502292
21 -0.003945736074279155 0.012092227783909958 -0.005739737130973888
22 -0.004707066966959965 -0.00309837675510264 0.00836796378914629
23 0.007301604507843886 -0.007836563534191565 -0.0050671893383056775
24 -0.009904650286750727 -0.0008299852952824008 0.014899133235977951
25 0.00036090868755952793 -0.01809426370108614 0.006980820961478742
