# lammps data file

2 atoms
1 atom types

-6 6 xlo xhi
-6 6 ylo yhi
-6 6 zlo zhi

Atoms

1 1	0 0 5	
2 1	0 0 1	

Velocities

1 0 0 -0.0045591837586768874
2 0 0 0.0045591837586768874

