LAMMPS (23 Jun 2022 - Update 4)
# main parameters
units real
dimension 3
atom_style atomic
pair_style lj/cut 12
boundary p p p

#read_data twoparticle.data
region myreg block -6 6 -6 6 -6 6
create_box 1 myreg
Created orthogonal box = (-6 -6 -6) to (6 6 6)
  1 by 1 by 1 MPI processor grid
create_atoms 1 random 20 14141 myreg
Created 20 atoms
  using lattice units in orthogonal box = (-6 -6 -6) to (6 6 6)
  create_atoms CPU = 0.000 seconds

mass 1 1
pair_coeff 1 1 0.1 1.0
neigh_modify every 1

velocity all create 300 4928459
fix mynve all nve
fix myber all temp/berendsen 300 300 100
timestep 1

thermo 10
dump mydmp all atom 10 dump.lammpstrj

variable Epot equal pe
variable Ekin equal ke
variable pressure equal press
variable temperature equal temp
fix myat1 all ave/time 10 1 10 v_Epot file Epot.dat
fix myat2 all ave/time 10 1 10 v_Ekin file Ekin.dat
fix myat3 all ave/time 10 1 10 v_pressure file pressure.dat
fix myat4 all ave/time 10 1 10 v_temperature file temperature.dat
run 50000
Generated 0 of 0 mixed pair_coeff terms from geometric mixing rule
Neighbor list info ...
  update every 1 steps, delay 10 steps, check yes
  max neighbors/atom: 2000, page size: 100000
  master list distance cutoff = 14
  ghost atom cutoff = 14
  binsize = 7, bins = 2 2 2
  1 neighbor lists, perpetual/occasional/extra = 1 0 0
  (1) pair lj/cut, perpetual
      attributes: half, newton on
      pair build: half/bin/atomonly/newton
      stencil: half/bin/3d
      bin: standard
Per MPI rank memory allocation (min/avg/max) = 3.976 | 3.976 | 3.976 Mbytes
   Step          Temp          E_pair         E_mol          TotEng         Press     
         0   300           -0.24481976     0              16.745798      432.25407    
        10   300.26934     -0.26109414     0              16.744777      433.07528    
        20   299.92989     -0.24266335     0              16.743983      432.9271     
        30   299.42841     -0.21201625     0              16.746229      433.55791    
        40   299.39434     -0.20661981     0              16.749696      433.92376    
        50   299.3263      -0.19923353     0              16.753229      434.74428    
        60   298.94528     -0.1727183      0              16.758165      436.16692    
        70   298.45674     -0.13741254     0              16.765802      437.13346    
        80   298.35297     -0.12199702     0              16.77534       437.76957    
        90   299.40998     -0.1753177      0              16.781883      438.54053    
       100   294.74913      0.10537265     0              16.798605      507.29774    
       110   299.58924     -0.16372523     0              16.803628      438.55882    
       120   298.87999     -0.11804002     0              16.809145      438.73169    
       130   299.39951     -0.14239727     0              16.814211      438.10882    
       140   300.35092     -0.19581292     0              16.814679      438.26731    
       150   300.74658     -0.22209945     0              16.810801      448.13121    
       160   301.5478      -0.27293921     0              16.805339      448.38398    
       170   302.78548     -0.357104       0              16.79127       443.72589    
       180   298.22198     -0.11228195     0              16.777636      519.94695    
       190   304.84694     -0.46886465     0              16.796261      441.89065    
       200   303.91445     -0.43966763     0              16.772646      432.39441    
       210   302.37681     -0.37084345     0              16.754386      461.86482    
       220   301.12037     -0.30948975     0              16.74458       481.67659    
       230   303.71628     -0.47170392     0              16.729387      441.29565    
       240   301.01834     -0.33458002     0              16.713711      465.61757    
       250   299.22292     -0.22714633     0              16.719461      477.83056    
       260   300.27061     -0.28773961     0              16.718204      439.44432    
       270   298.85649     -0.20462612     0              16.721228      434.46735    
       280   298.05736     -0.14985708     0              16.730738      435.60083    
       290   298.18581     -0.1460363      0              16.741833      436.49723    
       300   298.60673     -0.16112796     0              16.750581      440.97257    
       310   298.58554     -0.15176481     0              16.758744      443.34059    
       320   298.4011      -0.13283865     0              16.767224      438.39392    
       330   298.75741     -0.14427491     0              16.775968      437.83967    
       340   298.84514     -0.14460823     0              16.780603      456.53625    
       350   299.77804     -0.1898169      0              16.78823       450.47535    
       360   300.06602     -0.2065298      0              16.787827      437.09838    
       370   301.10739     -0.2681853      0              16.78515       437.86196    
       380   287.00258      0.54996731     0              16.804471      620.11017    
       390   301.9548      -0.25624816     0              16.84508       451.56588    
       400   299.63477     -0.12673645     0              16.843196      439.51159    
       410   298.85791     -0.077686258    0              16.848248      441.81728    
       420   298.79086     -0.066988442    0              16.855149      442.49525    
       430   299.02521     -0.073938462    0              16.861471      442.40399    
       440   299.58375     -0.10161143     0              16.865431      442.10514    
       450   300.18899     -0.1355799      0              16.865741      444.54798    
       460   300.81649     -0.17369686     0              16.863162      444.63053    
       470   302.9457      -0.30793514     0              16.849513      448.1727     
       480   299.92492     -0.047496885    0              16.938868      509.22616    
       490   302.41138     -0.19738207     0              16.929805      441.21622    
       500   301.7087      -0.16838222     0              16.919008      439.68618    
       510   302.19441     -0.20673139     0              16.908167      437.77495    
       520   303.89183     -0.32062136     0              16.890411      438.33727    
       530   297.60179      0.031524769    0              16.886319      534.20938    
       540   305.30441     -0.42535851     0              16.865676      446.99533    
       550   291.88707      0.34773754     0              16.878876      580.08367    
       560   294.57293      0.20049782     0              16.883751      542.4074     
       570   302.89706     -0.2711701      0              16.883523      441.2243     
       580   303.21255     -0.30804599     0              16.864516      445.53608    
       590   300.15154     -0.12080137     0              16.878399      496.95927    
       600   302.68524     -0.27683651     0              16.86586       447.61575    
       610   301.54741     -0.22388253     0              16.854373      444.36337    
       620   300.48161     -0.16908927     0              16.848804      440.64998    
       630   299.54757     -0.11580459     0              16.849189      440.86957    
       640   299.03967     -0.082667357    0              16.853561      441.90078    
       650   298.85421     -0.065976518    0              16.859749      442.69301    
       660   298.86117     -0.059764841    0              16.866354      443.13892    
       670   299.02637     -0.063046356    0              16.872429      443.18449    
       680   299.34999     -0.076761757    0              16.877042      442.80799    
       690   299.75495     -0.097248705    0              16.87949       442.2793     
       700   300.15212     -0.1195922      0              16.879641      441.96387    
       710   300.60684     -0.14757394     0              16.877412      441.77857    
       720   301.27508     -0.19086031     0              16.871972      441.26787    
       730   301.85328     -0.23350012     0              16.862078      446.55927    
       740   298.6452      -0.052203006    0              16.861685      488.86809    
       750   301.64714     -0.22630546     0              16.857598      444.03408    
       760   301.40563     -0.22100726     0              16.849218      438.17577    
       770   300.48849     -0.17517771     0              16.843106      455.39131    
       780   300.75217     -0.19328961     0              16.839927      443.41357    
       790   299.6762      -0.13333802     0              16.838941      439.40324    
       800   299.1353      -0.098684756    0              16.84296       440.82918    
       810   299.47718     -0.11383709     0              16.84717       441.56875    
       820   299.83082     -0.13286605     0              16.84817       451.29281    
       830   299.03304     -0.08197976     0              16.853873      471.83472    
       840   301.93429     -0.25165984     0              16.848507      442.29725    
       850   301.90999     -0.26199979     0              16.83679       439.7549     
       860   300.3063      -0.17747377     0              16.830491      450.70467    
       870   299.66615     -0.13997081     0              16.831739      449.83544    
       880   299.27351     -0.11503031     0              16.834442      442.15265    
       890   298.59754     -0.07029351     0              16.840895      442.3136     
       900   298.29903     -0.044255702    0              16.850027      443.50856    
       910   298.28685     -0.033698881    0              16.859894      444.25497    
       920   298.47182     -0.034858347    0              16.86921       444.44072    
       930   298.92019     -0.052745677    0              16.876716      443.83146    
       940   299.77791     -0.097670148    0              16.880369      442.64212    
       950   300.63038     -0.14765752     0              16.878662      444.39028    
       960   301.00872     -0.17392712     0              16.873819      444.05912    
       970   300.98559     -0.17863777     0              16.867799      439.48045    
       980   300.65049     -0.16422163     0              16.863236      440.00886    
       990   300.30551     -0.14736485     0              16.860555      441.21629    
      1000   299.85291     -0.12210276     0              16.860184      441.36054    
      1010   299.37137     -0.092429803    0              16.862585      441.84247    
      1020   299.037       -0.068744497    0              16.867333      442.76754    
      1030   298.90813     -0.055436       0              16.873343      443.50921    
      1040   298.95585     -0.051978079    0              16.879503      443.84231    
      1050   299.11786     -0.055638459    0              16.885019      443.85074    
      1060   299.42374     -0.068786856    0              16.889194      443.48655    
      1070   299.9219      -0.095189702    0              16.891004      442.87144    
      1080   300.5239      -0.13074779     0              16.889541      443.22654    
      1090   300.93016     -0.15821792     0              16.885079      447.27595    
      1100   301.26425     -0.1831976      0              16.879021      450.47254    
      1110   302.22553     -0.24792854     0              16.868732      444.5721     
      1120   301.95475     -0.24588482     0              16.85544       454.91653    
      1130   301.70778     -0.23987462     0              16.847464      458.0494     
      1140   302.26421     -0.28442809     0              16.834424      441.11115    
      1150   300.77275     -0.20870938     0              16.825673      453.06666    
      1160   300.11703     -0.17252797     0              16.824718      454.75992    
      1170   300.11665     -0.17378618     0              16.823438      441.69858    
      1180   299.81055     -0.15570175     0              16.824186      438.6308     
      1190   300.94538     -0.22155333     0              16.822606      437.2476     
      1200   300.97866     -0.23302763     0              16.813017      475.6492     
      1210   301.39998     -0.25478274     0              16.815123      488.14958    
      1220   301.22788     -0.25920272     0              16.800956      466.54342    
      1230   298.84658     -0.13748865     0              16.787804      516.64345    
      1240   299.43134     -0.13076136     0              16.82765       489.63568    
      1250   300.16371     -0.17433901     0              16.82555       438.18496    
      1260   299.08378     -0.10999421     0              16.828733      439.9038     
      1270   298.96127     -0.097245499    0              16.834543      440.72655    
      1280   299.16465     -0.10331144     0              16.839996      440.67581    
      1290   299.86421     -0.13994382     0              16.842983      439.635      
      1300   301.38447     -0.23049667     0              16.838531      445.16795    
      1310   295.94891      0.08574763     0              16.84693       527.51866    
      1320   301.62274     -0.23789197     0              16.84463       443.47465    
      1330   300.33185     -0.16880281     0              16.840609      438.03484    
      1340   301.21466     -0.22467859     0              16.834732      445.01216    
      1350   296.75681      0.061396249    0              16.868334      508.62446    
      1360   301.20524     -0.18850889     0              16.870367      441.76984    
      1370   300.98555     -0.18184049     0              16.864594      446.39407    
      1380   301.23862     -0.20257536     0              16.858191      450.57454    
      1390   301.44817     -0.22230016     0              16.850335      449.05663    
      1400   301.34416     -0.2245547      0              16.84219       442.3363     
      1410   301.05321     -0.21471206     0              16.835554      437.7559     
      1420   301.37589     -0.23960813     0              16.828933      435.49324    
      1430   302.21567     -0.29788275     0              16.81822       437.05275    
      1440   299.15911     -0.13317993     0              16.809813      480.49786    
      1450   300.40727     -0.19454278     0              16.81914       457.67972    
      1460   300.24017     -0.18791073     0              16.816308      437.73548    
      1470   299.83708     -0.16452282     0              16.816868      437.68598    
      1480   300.32862     -0.19351882     0              16.81571       444.52588    
      1490   295.48496      0.094563759    0              16.82947       511.75542    
      1500   301.32205     -0.2351356      0              16.830356      447.57971    
      1510   299.83012     -0.15362987     0              16.827366      458.25159    
      1520   300.03736     -0.16419197     0              16.828541      449.32159    
      1530   300.23339     -0.17630072     0              16.827535      439.26795    
      1540   300.89281     -0.21677576     0              16.824406      438.74102    
      1550   290.0216       0.42151905     0              16.847006      565.3783     
      1560   300.48823     -0.16591117     0              16.852357      441.28403    
      1570   299.04622     -0.081673737    0              16.854926      441.77566    
      1580   298.68131     -0.054139618    0              16.861793      443.23378    
      1590   298.68881     -0.046960958    0              16.869397      443.79762    
      1600   298.8365      -0.048237885    0              16.876484      443.92184    
      1610   299.09165     -0.056780648    0              16.882392      443.65619    
      1620   299.4645      -0.07382036     0              16.886468      442.96162    
      1630   299.89235     -0.09636603     0              16.888154      442.02993    
      1640   300.14879     -0.11122093     0              16.887823      441.41999    
      1650   300.16222     -0.11292795     0              16.886877      441.27756    
      1660   300.16168     -0.11378682     0              16.885987      441.23348    
      1670   300.17489     -0.11555057     0              16.884972      441.30289    
      1680   300.0523      -0.10928475     0              16.884295      441.7207     
      1690   299.86788     -0.098545742    0              16.884589      442.34011    
      1700   299.73522     -0.089818888    0              16.885802      442.76773    
      1710   299.738       -0.088343891    0              16.887435      442.71172    
      1720   300.53294     -0.13335146     0              16.887449      440.91296    
      1730   268.68438      1.7551774      0              16.972222      775.77396    
      1740   304.39439     -0.30563912     0              16.933856      435.32482    
      1750   275.21122      1.3974186      0              16.984113      777.04968    
      1760   305.20899     -0.35733932     0              16.928291      448.19218    
      1770   301.51033     -0.16557652     0              16.910579      440.66583    
      1780   300.00149     -0.083127925    0              16.907574      443.42923    
      1790   299.73078     -0.066656734    0              16.908713      444.01219    
      1800   299.97877     -0.079751827    0              16.909663      443.39609    
      1810   300.64723     -0.11937763     0              16.907896      442.18285    
      1820   301.09679     -0.15077913     0              16.901955      448.63344    
      1830   300.85449     -0.14186856     0              16.897143      449.90791    
      1840   300.33497     -0.11613122     0              16.893457      442.11003    
      1850   300.27619     -0.11380495     0              16.892454      441.55269    
      1860   301.60419     -0.1945057      0              16.886966      442.19196    
      1870   295.81642      0.13491526     0              16.888594      527.27       
      1880   302.04811     -0.21657739     0              16.890035      461.68283    
      1890   301.02234     -0.16555977     0              16.882958      454.29495    
      1900   300.76047     -0.15607048     0              16.877616      442.70359    
      1910   300.55606     -0.14777726     0              16.874333      439.9825     
      1920   301.40938     -0.20144853     0              16.86899       438.27976    
      1930   302.4401      -0.2721402      0              16.856673      445.50747    
      1940   300.51599     -0.17077168     0              16.849069      473.9401     
      1950   301.78049     -0.25047959     0              16.840977      443.92107    
      1960   300.95372     -0.21107512     0              16.833557      438.32986    
      1970   301.31029     -0.23660072     0              16.828225      438.81966    
      1980   294.66052      0.11133009     0              16.799544      550.6101     
      1990   299.27427     -0.071055422    0              16.87846       513.08466    
      2000   301.61746     -0.21320008     0              16.869022      440.84246    
      2010   300.88447     -0.17751267     0              16.863197      439.46542    
      2020   301.46905     -0.21793587     0              16.855881      441.74999    
      2030   301.10423     -0.20465226     0              16.848503      440.82914    
      2040   299.83712     -0.13506774     0              16.846325      439.18994    
      2050   299.39517     -0.10732482     0              16.849038      440.53661    
      2060   299.48189     -0.10895168     0              16.852322      440.83264    
      2070   299.64025     -0.11551079     0              16.854732      440.99906    
      2080   299.62475     -0.11262379     0              16.856741      441.50236    
      2090   299.47297     -0.10142088     0              16.859348      442.12854    
      2100   299.31562     -0.088990059    0              16.862867      442.5564     
      2110   299.16616     -0.07613836     0              16.867254      442.92478    
      2120   299.02744     -0.06306235     0              16.872474      443.40683    
      2130   298.92952     -0.051616518    0              16.878374      443.95771    
      2140   298.88971     -0.043085211    0              16.88465       444.47069    
      2150   298.90373     -0.037549248    0              16.89098       444.88699    
      2160   298.96412     -0.034866967    0              16.897083      445.17625    
      2170   299.06973     -0.035230391    0              16.902701      445.30598    
      2180   299.24908     -0.040570564    0              16.907518      445.16831    
      2190   299.62309     -0.058483947    0              16.910787      444.45863    
      2200   300.32706     -0.098304701    0              16.910836      443.44047    
      2210   300.89671     -0.13452705     0              16.906876      444.40026    
      2220   300.87414     -0.13857312     0              16.901551      443.20013    
      2230   300.39859     -0.115171       0              16.898021      441.86501    
      2240   300.17074     -0.10360314     0              16.896684      442.05533    
      2250   300.32469     -0.11365047     0              16.895356      442.0241     
      2260   300.75784     -0.14128873     0              16.892249      442.73189    
      2270   300.91178     -0.15561333     0              16.886643      452.29309    
      2280   299.62804     -0.082987407    0              16.886564      474.66807    
      2290   301.5498      -0.19663402     0              16.881757      448.03349    
      2300   301.43237     -0.19874094     0              16.872999      439.87555    
      2310   301.28494     -0.1979187      0              16.865472      438.99813    
      2320   301.54561     -0.22068373     0              16.85747       439.24652    
      2330   301.86714     -0.24909434     0              16.847269      444.58544    
      2340   300.92088     -0.20330502     0              16.839467      464.98602    
      2350   302.13159     -0.28080901     0              16.830532      449.59181    
      2360   301.67414     -0.26628566     0              16.819147      438.08591    
      2370   300.97562     -0.23346777     0              16.812404      435.3314     
      2380   295.43954      0.075808209    0              16.808142      507.27465    
      2390   300.72247     -0.19027917     0              16.841256      446.99741    
      2400   299.59352     -0.12605558     0              16.84154       439.37126    
      2410   299.16365     -0.097734785    0              16.845516      440.65491    
      2420   299.37918     -0.10549545     0              16.849961      440.634      
      2430   300.14917     -0.147929       0              16.851137      440.62497    
      2440   300.61834     -0.17708457     0              16.848552      442.52569    
      2450   300.70333     -0.18590555     0              16.844545      439.13065    
      2460   300.54297     -0.18024611     0              16.841122      437.64532    
      2470   300.71281     -0.19332232     0              16.837665      437.92002    
      2480   301.39076     -0.23745534     0              16.831928      438.29617    
      2490   299.15124     -0.1281252      0              16.814422      490.24121    
      2500   303.03452     -0.31562174     0              16.846857      449.5414     
      2510   302.35399     -0.29051309     0              16.833423      440.57837    
      2520   297.56996     -0.025273619    0              16.827717      499.61755    
      2530   301.40308     -0.23331752     0              16.836764      450.18688    
      2540   300.45928     -0.1853425      0              16.831286      437.3555     
      2550   299.42402     -0.12573878     0              16.832258      439.21562    
      2560   298.90822     -0.091471654    0              16.837312      440.85718    
      2570   298.59981     -0.066731916    0              16.844585      442.20689    
      2580   298.41837     -0.047800328    0              16.853241      443.35693    
      2590   298.42611     -0.039104963    0              16.862374      444.02944    
      2600   298.66233     -0.044128953    0              16.870729      444.00089    
      2610   298.96982     -0.054934115    0              16.877339      443.65262    
      2620   299.04073     -0.053392535    0              16.882896      443.87129    
      2630   299.0235      -0.046833235    0              16.88848       444.37454    
      2640   299.08438     -0.044872525    0              16.893888      444.64981    
      2650   299.15578     -0.043893349    0              16.898911      444.80501    
      2660   299.34067     -0.049971207    0              16.903305      444.58191    
      2670   300.29835     -0.10262436     0              16.90489       443.06337    
      2680   279.10192      1.1447803      0              16.951826      675.41635    
      2690   301.18229     -0.10863422     0              16.948943      444.26803    
      2700   300.5095      -0.074002708    0              16.94547       444.62453    
      2710   301.66998     -0.14623434     0              16.938963      446.1788     
      2720   289.76084      0.55746354     0              16.968182      586.00799    
      2730   302.02661     -0.14178075     0              16.963614      443.49386    
      2740   301.31448     -0.10990066     0              16.955163      443.28478    
      2750   301.91569     -0.15324649     0              16.945867      444.03041    
      2760   301.69788     -0.15160123     0              16.935176      453.45956    
      2770   301.34187     -0.14073078     0              16.925884      444.23773    
      2780   300.0998      -0.07386296     0              16.922407      444.10167    
      2790   299.57919     -0.04300251     0              16.923782      445.4738     
      2800   299.51592     -0.036695988    0              16.926505      445.88404    
      2810   299.64492     -0.041572342    0              16.928935      445.77716    
      2820   299.91256     -0.055473542    0              16.930191      445.35936    
      2830   300.32884     -0.079793424    0              16.929448      445.02588    
      2840   300.78111     -0.10883054     0              16.926025      446.98821    
      2850   300.48644     -0.096317504    0              16.92185       458.41535    
      2860   300.31067     -0.087523086    0              16.920689      461.33646    
      2870   300.74709     -0.11605403     0              16.916875      447.78591    
      2880   300.30474     -0.093938433    0              16.913938      444.25812    
      2890   299.95216     -0.074475755    0              16.913432      444.04069    
      2900   299.83879     -0.067342206    0              16.914145      444.119      
      2910   299.81852     -0.06521747     0              16.915122      444.18886    
      2920   299.74443     -0.05978702     0              16.916356      444.45565    
      2930   299.63057     -0.051508334    0              16.918186      444.88463    
      2940   299.58238     -0.046448884    0              16.920516      445.18816    
      2950   299.7583      -0.0543809      0              16.922548      444.86618    
      2960   300.55699     -0.10034556     0              16.921817      443.42768    
      2970   301.38849     -0.15387991     0              16.915375      448.3806     
      2980   301.92845     -0.1939147      0              16.905921      443.44241    
      2990   299.16209     -0.04706128     0              16.8961        479.35954    
      3000   300.07586     -0.076741489    0              16.918172      467.63987    
      3010   300.1308      -0.081564397    0              16.916461      444.25979    
      3020   299.39411     -0.037860473    0              16.918442      445.64295    
      3030   299.23389     -0.024690694    0              16.922538      446.37384    
      3040   299.25561     -0.021563303    0              16.926895      446.64836    
      3050   299.35591     -0.023266475    0              16.930872      446.67191    
      3060   299.53871     -0.030464225    0              16.934028      446.4124     
      3070   299.81556     -0.044339498    0              16.935832      445.8534     
      3080   300.13504     -0.062394331    0              16.935871      445.23189    
      3090   300.38497     -0.078173291    0              16.934247      444.92422    
      3100   300.4779      -0.08601605     0              16.931667      444.84272    
      3110   300.41614     -0.085104161    0              16.929081      444.56068    
      3120   300.39155     -0.085846786    0              16.926946      443.91911    
      3130   301.36659     -0.14562107     0              16.922393      443.21308    
      3140   285.27812      0.80238223     0              16.95922       624.98816    
      3150   302.12224     -0.15132375     0              16.959487      442.09318    
      3160   302.13802     -0.16375319     0              16.947952      442.39342    
      3170   302.47884     -0.19698041     0              16.934027      447.92548    
      3180   300.90512     -0.11734025     0              16.924539      468.76096    
      3190   301.48141     -0.15672936     0              16.917788      451.3889     
      3200   300.87652     -0.12935981     0              16.910899      443.04574    
      3210   300.30677     -0.099998525    0              16.907993      442.75591    
      3220   300.42194     -0.10830506     0              16.906209      442.95207    
      3230   300.63666     -0.12468969     0              16.901985      452.43338    
      3240   296.22155      0.13812573     0              16.914749      508.98845    
      3250   300.78141     -0.11867031     0              16.916202      448.30975    
      3260   299.97045     -0.074511439    0              16.914432      444.38442    
      3270   299.56466     -0.049849087    0              16.916113      445.03156    
      3280   299.5433      -0.045962362    0              16.918789      445.20936    
      3290   299.70055     -0.052719494    0              16.920938      444.92711    
      3300   299.84801     -0.059869382    0              16.92214       444.61446    
      3310   299.90355     -0.062344705    0              16.92281       444.51243    
      3320   299.95872     -0.06506104     0              16.923218      444.43436    
      3330   300.07943     -0.072021229    0              16.923095      444.30056    
      3340   300.18689     -0.078948416    0              16.922254      444.31235    
      3350   300.15347     -0.078101046    0              16.921208      444.4231     
      3360   299.99863     -0.069729223    0              16.920811      444.48621    
      3370   299.96773     -0.067711373    0              16.921078      444.30777    
      3380   300.33088     -0.089075643    0              16.920281      443.41886    
      3390   300.75914     -0.11668558     0              16.916926      442.28456    
      3400   301.12946     -0.14308207     0              16.911503      441.08335    
      3410   301.28471     -0.15922433     0              16.904153      441.57961    
      3420   300.66053     -0.12943493     0              16.898592      440.97044    
      3430   300.32155     -0.11251574     0              16.896312      441.32085    
      3440   300.87526     -0.14701506     0              16.893173      439.99251    
      3450   301.98996     -0.21924368     0              16.884076      443.54423    
      3460   299.15428     -0.060971349    0              16.881748      485.76352    
      3470   301.48209     -0.19889685     0              16.875659      442.58385    
      3480   300.01263     -0.11911164     0              16.872221      440.67704    
      3490   299.46416     -0.085986756    0              16.874283      442.0305     
      3500   299.54104     -0.087369285    0              16.877255      442.15453    
      3510   299.76914     -0.098405532    0              16.879137      441.83199    
      3520   299.93125     -0.10679179     0              16.879932      441.46367    
      3530   300.06179     -0.11425539     0              16.879862      441.29647    
      3540   299.96511     -0.10897996     0              16.879661      441.63899    
      3550   299.65659     -0.090357206    0              16.880811      442.33268    
      3560   299.42068     -0.074176038    0              16.883631      442.95119    
      3570   299.5018      -0.075517238    0              16.886884      442.91947    
      3580   299.96943     -0.10048502     0              16.888401      442.10892    
      3590   300.55085     -0.13511447     0              16.8867        441.50708    
      3600   301.53556     -0.1962671      0              16.881317      439.35032    
      3610   282.92158      0.90008505     0              16.923459      648.43034    
      3620   302.03153     -0.20203176     0              16.903642      440.04923    
      3630   300.71124     -0.13538414     0              16.895515      456.37746    
      3640   299.83316     -0.084217729    0              16.89695       465.75555    
      3650   300.41216     -0.11944525     0              16.894515      445.03011    
      3660   299.6275      -0.074696808    0              16.894824      443.63926    
      3670   299.33716     -0.054961103    0              16.898116      444.24731    
      3680   299.49871     -0.060646689    0              16.90158       444.03015    
      3690   300.04662     -0.090337858    0              16.90292       442.83167    
      3700   301.00306     -0.14762933     0              16.899796      441.49242    
      3710   301.74955     -0.19868147     0              16.891022      447.37011    
      3720   301.2424      -0.1777518      0              16.883229      461.20173    
      3730   302.096       -0.23683174     0              16.872493      442.44048    
      3740   301.13047     -0.19134971     0              16.863292      437.89178    
      3750   300.24163     -0.14435742     0              16.859944      438.90091    
      3760   300.06973     -0.13511953     0              16.859447      439.28681    
      3770   300.49034     -0.16049654     0              16.857891      438.76649    
      3780   301.01593     -0.1948423      0              16.853313      439.31349    
      3790   301.20443     -0.21212144     0              16.846709      439.92449    
      3800   300.83526     -0.19729178     0              16.840631      438.05177    
      3810   300.02832     -0.15376298     0              16.838458      438.21479    
      3820   299.62227     -0.12936664     0              16.839858      439.2982     
      3830   299.61886     -0.12696925     0              16.842062      440.24269    
      3840   299.51628     -0.1187819      0              16.84444       440.8829     
      3850   299.2268      -0.098702518    0              16.848124      441.15189    
      3860   299.21734     -0.093394333    0              16.852897      441.17596    
      3870   299.95417     -0.13268311     0              16.855339      440.27575    
      3880   300.46801     -0.1638024      0              16.853321      444.13942    
      3890   300.12757     -0.14618362     0              16.851659      443.96016    
      3900   299.29949     -0.097531018    0              16.853413      441.59272    
      3910   298.76648     -0.061343565    0              16.859413      442.85728    
      3920   298.71867     -0.051302327    0              16.866746      443.52813    
      3930   298.85887     -0.052302959    0              16.873686      443.70469    
      3940   299.07955     -0.058952345    0              16.879535      443.63003    
      3950   299.28767     -0.066168054    0              16.884106      443.50363    
      3960   299.3918      -0.068374494    0              16.887797      443.47149    
      3970   299.44666     -0.068115247    0              16.891163      443.44797    
      3980   300.07408     -0.10174884     0              16.893064      442.29683    
      3990   298.10945      0.0081338726   0              16.891679      487.38106    
      4000   301.11146     -0.15580895     0              16.897756      444.75859    
      4010   300.05793     -0.098103231    0              16.895795      442.26622    
      4020   299.74524     -0.079870469    0              16.896318      443.16803    
      4030   299.26662     -0.049743314    0              16.899339      444.53747    
      4040   299.03529     -0.031561677    0              16.904419      445.54166    
      4050   299.08743     -0.029048785    0              16.909885      445.81018    
      4060   299.40616     -0.042701753    0              16.914283      445.24971    
      4070   300.39695     -0.097911675    0              16.915187      442.95743    
      4080   302.19523     -0.21113851     0              16.903806      456.19987    
      4090   299.6193      -0.054054569    0              16.915002      541.55095    
      4100   304.79897     -0.28914906     0              16.97326       474.40774    
      4110   302.98328     -0.2063104      0              16.953266      440.4474     
      4120   301.51946     -0.13511508     0              16.941557      442.08399    
      4130   301.12286     -0.11989338     0              16.934318      442.93519    
      4140   300.94099     -0.11547085     0              16.92844       442.55968    
      4150   300.62441     -0.101994       0              16.923987      442.71698    
      4160   300.4132      -0.09272123     0              16.921298      443.19057    
      4170   300.6983      -0.11191523     0              16.918251      442.95823    
      4180   301.2945      -0.15149933     0              16.912432      442.76826    
      4190   301.95765     -0.19851129     0              16.902978      442.38776    
      4200   302.74304     -0.25680092     0              16.88917       441.80081    
      4210   296.299        0.10411118     0              16.885121      518.62649    
      4220   301.648       -0.19235138     0              16.891601      448.13917    
      4230   300.19617     -0.11466281     0              16.887065      441.54843    
      4240   299.55457     -0.07685921     0              16.888531      442.89774    
      4250   300.3219      -0.1193566      0              16.889491      442.65681    
      4260   283.6301       0.86065867     0              16.92416       631.4346     
      4270   301.86115     -0.1689349      0              16.92709       442.94854    
      4280   297.22207      0.084190299    0              16.917478      501.1977     
      4290   301.18242     -0.10621909     0              16.951365      459.02571    
      4300   300.74867     -0.086227331    0              16.946791      444.42233    
      4310   301.34642     -0.12647307     0              16.940399      448.87635    
      4320   301.01349     -0.11256593     0              16.935451      453.45289    
      4330   299.82624     -0.047728375    0              16.933048      445.71537    
      4340   299.3445      -0.017529203    0              16.935963      447.10182    
      4350   299.35221     -0.01417547     0              16.939754      447.37384    
      4360   299.45795     -0.016759993    0              16.943158      447.32851    
      4370   299.65554     -0.025390305    0              16.945719      446.9485     
      4380   300.2707      -0.059686766    0              16.946262      445.34564    
      4390   300.51748     -0.087779136    0              16.932146      472.07477    
      4400   303.33812     -0.2054045      0              16.974268      470.85306    
      4410   302.09627     -0.10273414     0              17.006606      474.60614    
      4420   302.49104     -0.13697283     0              16.994725      444.14369    
      4430   302.03572     -0.12368526     0              16.982226      445.34956    
      4440   301.98174     -0.13201363     0              16.97084       444.97893    
      4450   302.30429     -0.1622278      0              16.958894      442.43127    
      4460   304.52583     -0.30739144     0              16.939548      440.85965    
      4470   299.41827     -0.012451136    0              16.945219      538.80698    
      4480   302.49163     -0.18140213     0              16.95033       484.13413    
      4490   302.82651     -0.21848446     0              16.932213      442.94179    
      4500   301.01996     -0.12586961     0              16.922513      441.79123    
      4510   300.9085      -0.12425657     0              16.917814      442.35911    
      4520   299.57025     -0.0561244      0              16.910154      474.69313    
      4530   300.07595     -0.061939181    0              16.93298       473.43807    
      4540   300.78584     -0.10655973     0              16.928564      443.46765    
      4550   300.03242     -0.065622949    0              16.92683       444.47769    
      4560   299.81575     -0.05274286     0              16.92744       445.10037    
      4570   299.77405     -0.049132865    0              16.928688      445.31927    
      4580   299.96011     -0.058716838    0              16.929641      444.88607    
      4590   301.28183     -0.1374305      0              16.925783      446.07789    
      4600   295.30969      0.23402318     0              16.959003      529.3442     
      4610   301.01997     -0.080786419    0              16.967597      444.98778    
      4620   300.93318     -0.080435546    0              16.963033      444.9226     
      4630   294.53932      0.26030736     0              16.941657      532.87005    
      4640   302.64498     -0.13537863     0              17.005038      448.50456    
      4650   301.24752     -0.065350679    0              16.99592       446.28434    
      4660   301.13676     -0.065707662    0              16.98929       446.11968    
      4670   301.13737     -0.072292733    0              16.98274       445.62801    
      4680   301.18503     -0.08147322     0              16.976259      444.92547    
      4690   301.9103      -0.13111868     0              16.967689      442.65014    
      4700   303.34826     -0.22808943     0              16.952158      440.54924    
      4710   303.11828     -0.2349417      0              16.932281      454.12102    
      4720   303.5433      -0.2773071      0              16.913986      443.28488    
      4730   302.88999     -0.25896341     0              16.89533       440.36808    
      4740   301.01726     -0.16444495     0              16.883785      462.7627     
      4750   301.83288     -0.21576603     0              16.878657      457.26485    
      4760   286.45873      0.68009541     0              16.903798      616.73588    
      4770   301.44166     -0.17244246     0              16.899824      441.26749    
      4780   299.75051     -0.078531344    0              16.897956      443.1755     
      4790   299.35975     -0.053480611    0              16.900876      444.37702    
      4800   299.38347     -0.051107297    0              16.904593      444.59908    
      4810   299.66543     -0.064310626    0              16.907358      444.07689    
      4820   300.27395     -0.098553686    0              16.907579      442.59078    
      4830   301.70428     -0.18484712     0              16.902293      439.3869     
      4840   295.73324      0.13436961     0              16.883337      536.16121    
      4850   294.16806      0.25666457     0              16.916988      578.9436     
      4860   303.75818     -0.27975702     0              16.923706      463.41547    
      4870   301.08584     -0.14532003     0              16.906794      484.04517    
      4880   301.20212     -0.14547707     0              16.913223      470.84014    
      4890   301.39474     -0.16584597     0              16.903763      441.68326    
      4900   300.54508     -0.12221984     0              16.899268      441.47788    
      4910   301.02172     -0.15618569     0              16.892297      451.89227    
      4920   299.19692     -0.031806667    0              16.913328      480.56169    
      4930   300.22535     -0.090363779    0              16.913016      443.17556    
      4940   299.80247     -0.065842988    0              16.913587      444.15042    
      4950   300.20585     -0.088534943    0              16.913741      443.20167    
      4960   301.04061     -0.13968026     0              16.909872      442.00589    
      4970   301.4646      -0.17111912     0              16.902446      440.67667    
      4980   299.76463     -0.08568753     0              16.891599      471.70693    
      4990   300.13493     -0.075122652    0              16.923137      470.33619    
      5000   300.45651     -0.09547462     0              16.920997      443.31338    
      5010   300.40283     -0.094050229    0              16.919381      442.90204    
      5020   302.08596     -0.19637005     0              16.912386      441.09358    
      5030   299.28581     -0.046227765    0              16.903941      497.18939    
      5040   303.33126     -0.28454429     0              16.89474       442.80723    
      5050   302.0225      -0.22498569     0              16.880177      440.4231     
      5060   297.72615      0.018102143    0              16.879939      492.41979    
      5070   301.21034     -0.17763142     0              16.881534      446.26159    
      5080   301.52566     -0.20294148     0              16.874082      439.15405    
      5090   301.39649     -0.20410957     0              16.865598      449.02405    
      5100   301.05723     -0.19300462     0              16.857489      438.77065    
      5110   300.46157     -0.162972       0              16.853787      441.67369    
      5120   300.33321     -0.15793574     0              16.851553      443.96039    
      5130   300.14385     -0.14861318     0              16.850151      442.76264    
      5140   299.74322     -0.12555601     0              16.850518      441.25413    
      5150   299.34607     -0.10025287     0              16.853329      441.26836    
      5160   299.18179     -0.086568027    0              16.857709      441.6586     
      5170   299.26565     -0.086776213    0              16.862251      441.70866    
      5180   299.74491     -0.1109097      0              16.865261      441.14161    
      5190   300.15621     -0.13659839     0              16.862866      454.1876     
      5200   295.97114      0.12820182     0              16.890643      510.63552    
      5210   301.45167     -0.18332611     0              16.889507      440.6226     
      5220   299.86698     -0.098838035    0              16.884246      468.81033    
      5230   300.51371     -0.13892461     0              16.880787      441.92582    
      5240   299.33617     -0.070474412    0              16.882547      443.04173    
      5250   299.34684     -0.067118507    0              16.886507      443.32089    
      5260   299.5623      -0.076297479    0              16.88953       442.98151    
      5270   299.6167      -0.077153149    0              16.891756      442.99757    
      5280   299.51858     -0.069116812    0              16.894235      443.44725    
      5290   299.41283     -0.060019696    0              16.897343      443.96889    
      5300   299.36329     -0.053662974    0              16.900894      444.36783    
      5310   299.3921      -0.051700313    0              16.904488      444.55041    
      5320   299.51936     -0.055768825    0              16.907627      444.42096    
      5330   299.83801     -0.07191974     0              16.909523      443.68045    
      5340   300.54871     -0.11328902     0              16.908405      441.8893     
      5350   301.29677     -0.16139752     0              16.902663      440.0969     
      5360   301.67551     -0.19138726     0              16.894123      439.29126    
      5370   302.43801     -0.24640217     0              16.882293      441.25809    
      5380   302.86575     -0.2865042      0              16.866416      453.72399    
      5390   303.00771     -0.31058311     0              16.850377      464.72359    
      5400   302.22492     -0.28476911     0              16.831857      475.21596    
      5410   303.09769     -0.34237611     0              16.82368       462.89986    
      5420   292.63341      0.25923208     0              16.83264       562.16133    
      5430   302.41723     -0.30443011     0              16.823088      434.12914    
      5440   301.95453     -0.28964844     0              16.811664      436.74369    
      5450   290.23439      0.39631569     0              16.833854      567.74317    
      5460   300.4757      -0.18131627     0              16.836242      439.81744    
      5470   299.06772     -0.098756145    0              16.839061      440.51914    
      5480   299.67153     -0.12865085     0              16.843363      440.42007    
      5490   298.9655      -0.086887621    0              16.84514       468.14686    
      5500   300.31794     -0.16290745     0              16.845716      441.50162    
      5510   299.33218     -0.10510287     0              16.847692      440.77553    
      5520   299.16095     -0.090953322    0              16.852144      441.60856    
      5530   299.06306     -0.080299488    0              16.857254      442.03258    
      5540   299.0332      -0.073082513    0              16.86278       442.39217    
      5550   299.17005     -0.075646546    0              16.867966      442.45088    
      5560   299.50398     -0.090750516    0              16.871774      442.21581    
      5570   300.05972     -0.12109089     0              16.872909      443.02731    
      5580   299.90671     -0.11351743     0              16.871816      456.32592    
      5590   298.87805     -0.049055308    0              16.87802       472.3555     
      5600   300.28618     -0.12849295     0              16.878332      446.6815     
      5610   299.7377      -0.097364027    0              16.878398      442.72488    
      5620   299.38889     -0.074814603    0              16.881192      442.96779    
      5630   299.39824     -0.071746496    0              16.88479       443.06029    
      5640   299.60852     -0.080827949    0              16.887618      442.73043    
      5650   299.90958     -0.096516418    0              16.88898       442.14896    
      5660   300.53186     -0.13292701     0              16.887812      441.72194    
      5670   301.01073     -0.16609472     0              16.881766      455.25838    
      5680   298.12034      0.00042402775  0              16.884586      513.36279    
      5690   300.84228     -0.13266831     0              16.905652      474.83176    
      5700   300.63022     -0.12625981     0              16.90005       442.00072    
      5710   299.44274     -0.058257525    0              16.900799      444.19468    
      5720   299.12051     -0.035616405    0              16.90519       445.36231    
      5730   299.07501     -0.027798083    0              16.910432      445.88943    
      5740   299.14062     -0.026389251    0              16.915557      446.09556    
      5750   299.30882     -0.031457874    0              16.920014      445.95765    
      5760   299.69093     -0.050199261    0              16.922914      445.15585    
      5770   300.33716     -0.087028043    0              16.922684      443.75424    
      5780   300.87801     -0.1213938      0              16.91895       442.82411    
      5790   301.01874     -0.13576583     0              16.912548      450.77608    
      5800   296.65415      0.12062253     0              16.921746      506.44507    
      5810   301.04542     -0.12758651     0              16.922239      448.56932    
      5820   300.43364     -0.096805574    0              16.918371      443.4085     
      5830   300.40861     -0.097425711    0              16.916334      443.10382    
      5840   300.92809     -0.13081657     0              16.912364      444.4575     
      5850   300.44664     -0.10831847     0              16.907595      459.78614    
      5860   300.69373     -0.12418145     0              16.905726      455.42681    
      5870   300.96334     -0.14469195     0              16.900484      442.294      
      5880   298.61081     -0.038446076    0              16.873494      485.73516    
      5890   303.0386      -0.19972589     0              16.962984      442.39224    
      5900   302.16165     -0.16269246     0              16.950351      441.38241    
      5910   302.73727     -0.20944147     0              16.936202      440.38921    
      5920   303.10986     -0.24801563     0              16.91873       443.05957    
      5930   296.38869      0.13246968     0              16.918559      519.09993    
      5940   301.67205     -0.16731479     0              16.917999      447.26432    
      5950   300.48103     -0.10521594     0              16.912645      442.56483    
      5960   300.46284     -0.10613546     0              16.910695      442.10394    
      5970   302.01351     -0.2008903      0              16.903763      439.46555    
      5980   303.04331     -0.27582609     0              16.88715       449.56141    
      5990   302.44612     -0.25587512     0              16.873279      451.12943    
      6000   301.61545     -0.22122225     0              16.860887      439.64729    
      6010   300.41581     -0.15836008     0              16.855807      446.42211    
      6020   300.1715      -0.14563268     0              16.854698      445.84878    
      6030   300.86643     -0.18799521     0              16.851692      442.22228    
      6040   290.78281      0.40940492     0              16.878003      559.37541    
      6050   299.94465     -0.10725979     0              16.880223      442.69641    
      6060   298.89175     -0.043137837    0              16.884713      444.45099    
      6070   298.9215      -0.038350841    0              16.891185      444.86276    
      6080   299.37161     -0.05890512     0              16.896123      444.18136    
      6090   300.17565     -0.10330041     0              16.897265      443.74537    
      6100   300.59415     -0.1298747      0              16.894392      449.86518    
      6110   300.6155      -0.1341615      0              16.891315      451.04632    
      6120   300.45126     -0.12843307     0              16.887741      443.04371    
      6130   299.76595     -0.089924923    0              16.887437      442.68089    
      6140   299.39896     -0.06649572     0              16.890082      443.5859     
      6150   299.27377     -0.055503407    0              16.893983      444.1379     
      6160   299.25709     -0.050322296    0              16.89822       444.4548     
      6170   299.28529     -0.047747438    0              16.902392      444.68147    
      6180   299.33111     -0.046393307    0              16.906341      444.87154    
      6190   299.38283     -0.045660631    0              16.910003      445.03631    
      6200   299.42267     -0.044523684    0              16.913396      445.20629    
      6210   299.43165     -0.041774197    0              16.916655      445.42936    
      6220   299.40752     -0.037091311    0              16.91997       445.73129    
      6230   299.36745     -0.031307127    0              16.923485      446.09225    
      6240   299.33448     -0.025708427    0              16.927217      446.45943    
      6250   299.32481     -0.02130898     0              16.931068      446.77862    
      6260   299.34646     -0.018724249    0              16.934879      447.00919    
      6270   299.41541     -0.019073116    0              16.938436      447.08409    
      6280   299.635       -0.02869747     0              16.941248      446.68908    
      6290   300.61316     -0.084403096    0              16.940941      445.32826    
      6300   289.22192      0.57502951     0              16.955226      583.39938    
      6310   301.58904     -0.11335896     0              16.967254      446.87612    
      6320   300.60342     -0.062322292    0              16.96247       445.62851    
      6330   301.11178     -0.095893455    0              16.95769       444.77422    
      6340   301.41001     -0.12060993     0              16.949864      445.20763    
      6350   300.69665     -0.086340315    0              16.943732      444.54375    
      6360   299.98692     -0.047574059    0              16.942302      445.76222    
      6370   299.83321     -0.038143929    0              16.943027      446.24067    
      6380   299.9064      -0.041529586    0              16.943787      446.12717    
      6390   299.98668     -0.045831365    0              16.944032      445.95462    
      6400   299.97013     -0.044814382    0              16.944111      446.00703    
      6410   299.88931     -0.039816287    0              16.944532      446.23375    
      6420   299.8299      -0.035602075    0              16.945382      446.43415    
      6430   299.85624     -0.03614191     0              16.946333      446.41307    
      6440   300.05805     -0.047262424    0              16.946642      445.87814    
      6450   300.56603     -0.077812062    0              16.944863      444.64808    
      6460   301.14377     -0.11577802     0              16.939617      444.08191    
      6470   301.15493     -0.12329604     0              16.932731      443.41485    
      6480   300.76743     -0.10668142     0              16.9274        442.77652    
      6490   300.78604     -0.11188465     0              16.92325       442.48417    
      6500   301.29833     -0.14688465     0              16.917264      441.91771    
      6510   301.98676     -0.19537169     0              16.907767      441.38464    
      6520   303.15247     -0.27607492     0              16.893084      438.27029    
      6530   302.35405     -0.25097849     0              16.872961      467.3277     
      6540   303.10487     -0.30226071     0              16.864202      469.16007    
      6550   302.23117     -0.26457433     0              16.852406      477.9182     
      6560   297.58217      0.0014966532   0              16.855179      524.85261    
      6570   303.69379     -0.36251074     0              16.837306      434.17463    
      6580   301.01705     -0.22581957     0              16.822399      457.98912    
      6590   299.67018     -0.14304654     0              16.828891      468.07675    
      6600   300.13513     -0.17163971     0              16.826631      439.50988    
      6610   298.83676     -0.094331795    0              16.830405      440.75041    
      6620   298.38277     -0.060212215    0              16.838813      442.37384    
      6630   298.51214     -0.058470578    0              16.847881      442.68997    
      6640   299.05092     -0.082026938    0              16.854839      441.86293    
      6650   299.72166     -0.11677117     0              16.858082      440.81082    
      6660   300.03681     -0.13430012     0              16.858402      440.63932    
      6670   299.78113     -0.11945496     0              16.858767      440.88565    
      6680   299.23993     -0.085835015    0              16.861735      441.93468    
      6690   298.88937     -0.060345144    0              16.867371      443.13731    
      6700   299.02371     -0.061706092    0              16.873619      443.35006    
      6710   299.91119     -0.10896173     0              16.876626      444.05273    
      6720   297.63377      0.024020354    0              16.880625      485.73151    
      6730   300.18376     -0.11273859     0              16.888286      451.83415    
      6740   299.46154     -0.070693536    0              16.889428      443.74143    
      6750   299.24473     -0.054158242    0              16.893684      444.18782    
      6760   299.86753     -0.086865157    0              16.89625       443.15098    
      6770   300.41924     -0.11938562     0              16.894975      442.293      
      6780   300.61753     -0.13367143     0              16.89192       444.42511    
      6790   297.23641      0.059477053    0              16.893578      493.63814    
      6800   300.02354     -0.08310293     0              16.908848      462.89323    
      6810   300.20292     -0.095049758    0              16.90706       444.29047    
      6820   299.60261     -0.060058433    0              16.908053      444.45576    
      6830   299.45081     -0.048549202    0              16.910964      444.88513    
      6840   299.60645     -0.054593674    0              16.913735      444.64192    
      6850   299.82009     -0.065265798    0              16.915162      444.24837    
      6860   299.64272     -0.053751524    0              16.916631      444.76088    
      6870   299.46435     -0.040940029    0              16.919341      445.43868    
      6880   299.46513     -0.037865038    0              16.92246       445.68128    
      6890   299.57016     -0.041038784    0              16.925235      445.60238    
      6900   299.77836     -0.050969931    0              16.927094      445.1781     
      6910   300.10782     -0.069340096    0              16.927384      444.36248    
      6920   300.54537     -0.096079436    0              16.925425      443.26509    
      6930   301.0068      -0.1268126      0              16.920825      442.2345     
      6940   301.35239     -0.15332371     0              16.913887      441.74417    
      6950   301.4936      -0.16960159     0              16.905607      442.27694    
      6960   301.47187     -0.17688276     0              16.897095      443.65122    
      6970   301.46162     -0.18462848     0              16.888768      443.95846    
      6980   301.59397     -0.20084289     0              16.880049      442.18921    
      6990   301.77513     -0.22085508     0              16.870297      441.39141    
      7000   301.38035     -0.20810012     0              16.860694      449.72701    
      7010   300.25982     -0.14807774     0              16.857255      462.54541    
      7020   301.21095     -0.20651643     0              16.852684      445.57987    
      7030   301.48886     -0.23080332     0              16.844136      443.55695    
      7040   299.66037     -0.12877365     0              16.842609      464.9722     
      7050   300.02364     -0.15079598     0              16.84116       441.17364    
      7060   298.7867      -0.076452959    0              16.845449      441.90971    
      7070   298.43374     -0.048145183    0              16.853766      443.37571    
      7080   298.46987     -0.041247139    0              16.86271       443.94777    
      7090   298.67336     -0.044596116    0              16.870887      444.01544    
      7100   299.01438     -0.057324222    0              16.877472      443.64561    
      7110   299.50381     -0.08087584     0              16.881639      442.89563    
      7120   300.11066     -0.11428935     0              16.882595      442.0716     
      7130   300.69547     -0.14995711     0              16.880049      441.63498    
      7140   301.03976     -0.17468454     0              16.87482       441.31937    
      7150   301.02322     -0.17980687     0              16.868761      440.31737    
      7160   300.7841      -0.17136921     0              16.863656      439.20652    
      7170   300.71577     -0.17157392     0              16.859581      438.37022    
      7180   301.12482     -0.19988888     0              16.854433      437.82266    
      7190   301.61404     -0.2360618      0              16.845967      443.51466    
      7200   300.56744     -0.18254082     0              16.840214      465.22242    
      7210   301.88999     -0.26535122     0              16.832306      449.01076    
      7220   300.42886     -0.18985615     0              16.82505       461.92703    
      7230   301.1809      -0.23530116     0              16.822197      460.89381    
      7240   298.77957     -0.096156172    0              16.825341      485.95645    
      7250   300.42918     -0.19380565     0              16.821118      438.4598     
      7260   299.20105     -0.12199834     0              16.82337       439.61945    
      7270   299.15589     -0.11442936     0              16.828381      440.21346    
      7280   299.61328     -0.13678882     0              16.831926      440.76373    
      7290   300.01618     -0.15917703     0              16.832357      447.78283    
      7300   298.79636     -0.086190345    0              16.836258      472.63075    
      7310   301.1305      -0.21851558     0              16.836128      448.82509    
      7320   301.98109     -0.27632546     0              16.826492      438.86101    
      7330   302.3328      -0.3088498      0              16.813887      442.73532    
      7340   300.88645     -0.23703397     0              16.803788      463.74737    
      7350   301.18228     -0.25895251     0              16.798624      444.66793    
      7360   299.90431     -0.18966865     0              16.795529      436.34134    
      7370   298.92263     -0.12992937     0              16.79967       438.02614    
      7380   298.84104     -0.11855608     0              16.806423      439.04928    
      7390   299.30814     -0.13976828     0              16.811666      441.01441    
      7400   298.5288      -0.091186988    0              16.816108      462.41071    
      7410   298.39613     -0.070619267    0              16.829162      466.46329    
      7420   299.41771     -0.12433174     0              16.833307      442.95124    
      7430   299.03061     -0.097551742    0              16.838164      441.09924    
      7440   299.42968     -0.11544527     0              16.842872      440.71513    
      7450   300.06554     -0.1508087      0              16.84352       446.69088    
      7460   299.87657     -0.13898304     0              16.844644      454.82026    
      7470   300.19188     -0.15822764     0              16.843257      440.62213    
      7480   299.52903     -0.11947363     0              16.84447       439.78431    
      7490   299.38421     -0.10788964     0              16.847852      440.24071    
      7500   299.64969     -0.12008924     0              16.850688      439.80386    
      7510   300.02918     -0.14093086     0              16.851339      439.19452    
      7520   299.90084     -0.13361629     0              16.851385      439.57564    
      7530   299.8322      -0.12869119     0              16.852423      440.35076    
      7540   300.20116     -0.14968288     0              16.852327      441.24057    
      7550   300.50304     -0.16915383     0              16.849954      446.00692    
      7560   300.14676     -0.15079253     0              16.848136      456.50642    
      7570   300.62223     -0.17965799     0              16.8462        449.91929    
      7580   300.80625     -0.19464639     0              16.841633      440.66589    
      7590   300.47399     -0.17943319     0              16.838029      438.30248    
      7600   300.16504     -0.16361809     0              16.836346      438.35267    
      7610   299.96012     -0.15228096     0              16.836077      439.19257    
      7620   299.78773     -0.14174626     0              16.836849      439.99595    
      7630   299.65083     -0.13228973     0              16.838552      440.05258    
      7640   299.80094     -0.13898024     0              16.840363      439.20074    
      7650   300.75712     -0.19459585     0              16.838901      438.28473    
      7660   301.50787     -0.24451219     0              16.831504      451.01811    
      7670   299.64292     -0.15155251     0              16.818841      489.59797    
      7680   301.41956     -0.23284126     0              16.838173      450.32931    
      7690   299.30503     -0.11354786     0              16.837709      440.06429    
      7700   298.38756     -0.054168922    0              16.845127      442.82593    
      7710   298.21147     -0.034276266    0              16.855047      444.08513    
      7720   298.26231     -0.027005635    0              16.865197      444.72725    
      7730   298.47751     -0.029842547    0              16.874548      444.82882    
      7740   298.9352      -0.048325989    0              16.881986      444.10234    
      7750   299.88051     -0.098380423    0              16.885469      442.05705    
      7760   300.47189     -0.13817306     0              16.87917       459.07708    
      7770   300.01224     -0.078962691    0              16.912348      479.31655    
      7780   303.10416     -0.26456803     0              16.901855      442.39157    
      7790   295.67868      0.15433657     0              16.900214      547.78649    
      7800   302.8112      -0.24745265     0              16.902378      451.74274    
      7810   300.97785     -0.15348047     0              16.892518      439.97662    
      7820   300.47298     -0.12811718     0              16.889287      441.0871     
      7830   301.02164     -0.16364851     0              16.88483       444.1712     
      7840   300.3321      -0.12892357     0              16.880503      464.77335    
      7850   302.02874     -0.23119701     0              16.874319      450.14512    
      7860   301.41001     -0.20818657     0              16.862287      460.59104    
      7870   301.47805     -0.21911132     0              16.855216      470.31319    
      7880   298.4201      -0.029680687    0              16.871458      495.07551    
      7890   301.05976     -0.18345917     0              16.867178      438.72075    
      7900   300.92319     -0.18370545     0              16.859197      450.27152    
      7910   299.14133     -0.046671142    0              16.895315      483.34495    
      7920   301.17814     -0.16298407     0              16.894358      439.75804    
      7930   301.42804     -0.18437765     0              16.887117      441.61744    
      7940   301.52746     -0.1986555      0              16.87847       448.29016    
      7950   301.87108     -0.228023       0              16.868564      441.08277    
      7960   301.58422     -0.22175979     0              16.858581      436.56431    
      7970   301.26358     -0.21156562     0              16.850615      436.35281    
      7980   301.0674      -0.2069889      0              16.844081      435.97001    
      7990   301.56918     -0.24230707     0              16.837181      435.08451    
      8000   300.65561     -0.20185473     0              16.825893      477.13138    
      8010   295.84996      0.10306251     0              16.85864       534.28517    
      8020   301.55052     -0.22151692     0              16.856915      436.60683    
      8030   300.52881     -0.16861629     0              16.851951      439.87988    
      8040   300.13053     -0.14787203     0              16.850138      442.40261    
      8050   299.54761     -0.11391605     0              16.85108       441.53747    
      8060   298.91822     -0.073528909    0              16.855822      442.33242    
      8070   298.71075     -0.054738047    0              16.862862      443.27197    
      8080   298.82572     -0.054144631    0              16.869967      443.50181    
      8090   299.05516     -0.06114256     0              16.875963      443.36399    
      8100   299.22597     -0.066006567    0              16.880773      443.27665    
      8110   299.2944      -0.065691957    0              16.884963      443.37628    
      8120   299.3714      -0.066218519    0              16.888798      443.43783    
      8130   299.55992     -0.07381975     0              16.891874      443.14981    
      8140   299.93183     -0.093416718    0              16.89334       442.24195    
      8150   300.63131     -0.13463373     0              16.891738      440.37325    
      8160   301.75482     -0.20528665     0              16.884716      438.15464    
      8170   302.79264     -0.27761104     0              16.871168      438.53651    
      8180   303.41732     -0.33109664     0              16.853062      437.02254    
      8190   304.05941     -0.38841238     0              16.832111      433.00175    
      8200   285.95411      0.65754262     0              16.852665      624.58358    
      8210   302.73084     -0.29293659     0              16.852343      432.84392    
      8220   302.4351      -0.28980464     0              16.838726      433.38135    
      8230   301.69281     -0.26521429     0              16.821276      462.49505    
      8240   302.14091     -0.27970381     0              16.832165      468.91535    
      8250   304.00359     -0.40568876     0              16.811673      439.65938    
      8260   302.55574     -0.34229008     0              16.793073      464.0515     
      8270   302.92217     -0.37840813     0              16.777707      448.94235    
      8280   302.50885     -0.37054265     0              16.762164      437.8097     
      8290   302.55501     -0.3870476      0              16.748274      434.35347    
      8300   302.09067     -0.38497073     0              16.724053      458.98464    
      8310   303.06075     -0.40903548     0              16.754929      439.42464    
      8320   300.53003     -0.27272445     0              16.747911      432.61874    
      8330   299.34514     -0.204593       0              16.748936      434.8764     
      8340   298.68629     -0.16129994     0              16.754915      436.49997    
      8350   298.30587     -0.13094455     0              16.763725      437.79109    
      8360   298.10287     -0.10904988     0              16.774123      438.84552    
      8370   298.03126     -0.093865816    0              16.785251      439.68374    
      8380   298.03223     -0.082653275    0              16.796519      440.40043    
      8390   298.04561     -0.072175848    0              16.807754      441.12565    
      8400   298.17783     -0.068781735    0              16.818636      441.52233    
      8410   298.71913     -0.090357886    0              16.827717      440.86306    
      8420   299.88496     -0.15394187     0              16.83016       447.12332    
      8430   294.26504      0.19345852     0              16.859274      522.33835    
      8440   300.21128     -0.13997132     0              16.862612      440.55834    
      8450   299.58248     -0.10288348     0              16.864088      441.06157    
      8460   300.11822     -0.13216678     0              16.865146      441.37014    
      8470   300.58807     -0.16145953     0              16.862463      449.87443    
      8480   301.8116      -0.23665807     0              16.85656       447.20778    
      8490   295.69565      0.11139381     0              16.858233      521.40836    
      8500   301.28821     -0.20595102     0              16.857624      440.22755    
      8510   299.8413      -0.1256919      0              16.855937      440.09035    
      8520   299.90924     -0.12844135     0              16.857036      440.79667    
      8530   300.24577     -0.14848429     0              16.856052      446.83066    
      8540   299.74522     -0.11936029     0              16.856827      459.2103     
      8550   300.6526      -0.17267402     0              16.854903      443.57253    
      8560   300.57156     -0.17169165     0              16.851296      440.5542     
      8570   300.13684     -0.14909155     0              16.849276      446.19641    
      8580   299.70061     -0.12395151     0              16.849709      443.26519    
      8590   298.90088     -0.074359908    0              16.854008      442.53239    
      8600   298.514       -0.044683115    0              16.861774      443.7705     
      8610   298.51703     -0.036281996    0              16.870347      444.3945     
      8620   298.60184     -0.03287438     0              16.878558      444.7892     
      8630   298.67093     -0.029010312    0              16.886334      445.1909     
      8640   298.75035     -0.02613819     0              16.893705      445.52946    
      8650   298.87697     -0.02653208     0              16.900482      445.68661    
      8660   299.06288     -0.03119565     0              16.906347      445.60209    
      8670   299.29681     -0.039798904    0              16.910993      445.28599    
      8680   299.60779     -0.054279926    0              16.914124      444.64743    
      8690   300.32221     -0.094360442    0              16.914505      442.96432    
      8700   301.91086     -0.191001       0              16.907839      442.31409    
      8710   301.09075     -0.15756258     0              16.894829      471.66912    
      8720   300.67409     -0.12756581     0              16.901229      471.07612    
      8730   302.12932     -0.22177626     0              16.889436      446.6657     
      8740   296.31458      0.12394657     0              16.905838      512.03045    
      8750   300.49023     -0.11376388     0              16.904618      442.6468     
      8760   299.61721     -0.063624295    0              16.905313      443.96577    
      8770   299.91753     -0.078946131    0              16.907         443.5356     
      8780   300.83088     -0.13373668     0              16.903938      448.16161    
      8790   298.20866      0.020407841    0              16.909572      487.79825    
      8800   300.62445     -0.11862531     0              16.907358      444.49615    
      8810   299.64647     -0.063184805    0              16.90741       444.13618    
      8820   299.43479     -0.048333423    0              16.910273      444.83564    
      8830   299.57651     -0.053356324    0              16.913276      444.65889    
      8840   300.37496     -0.098238549    0              16.913615      442.88957    
      8850   301.44149     -0.16476195     0              16.907495      444.40894    
      8860   301.18629     -0.15807846     0              16.899725      443.82558    
      8870   300.27845     -0.11030793     0              16.896079      441.90312    
      8880   300.43931     -0.12116016     0              16.894338      443.76167    
      8890   300.3413      -0.11820411     0              16.891743      452.70647    
      8900   300.33315     -0.11980805     0              16.889678      446.27251    
      8910   299.61683     -0.078880348    0              16.890036      443.38159    
      8920   299.51057     -0.069777724    0              16.893121      443.44047    
      8930   300.72446     -0.13905551     0              16.892592      443.25331    
      8940   295.88178      0.1408431      0              16.898223      518.6545     
      8950   302.62197     -0.24357057     0              16.895543      446.89566    
      8960   301.65895     -0.20031921     0              16.884253      447.11597    
      8970   301.20985     -0.18337959     0              16.875758      440.27248    
      8980   300.28682     -0.13499891     0              16.871862      440.00052    
      8990   299.80966     -0.10783984     0              16.871997      441.03288    
[...]
     47840   301.71824     -0.21202357     0              16.875907      439.53457    
     47850   301.42852     -0.20509477     0              16.866427      440.47026    
     47860   300.1743      -0.13846796     0              16.862021      440.14682    
     47870   299.15856     -0.0783428      0              16.864619      442.21711    
     47880   298.86701     -0.055849952    0              16.8706        443.42136    
     47890   298.9917      -0.056671563    0              16.876841      443.54543    
     47900   299.51952     -0.082149086    0              16.881256      442.4763     
     47910   301.00854     -0.16839691     0              16.879339      443.24492    
     47920   289.44344      0.51968508     0              16.912428      582.09036    
     47930   302.40438     -0.2178834      0              16.908907      441.80583    
     47940   299.64112     -0.067239543    0              16.903052      475.59945    
     47950   301.07733     -0.15182938     0              16.899803      446.38245    
     47960   299.92754     -0.089049325    0              16.897464      442.81302    
     47970   299.43891     -0.0590859      0              16.899754      444.01131    
     47980   299.47952     -0.058139274    0              16.903         444.12722    
     47990   299.85763     -0.0776033      0              16.904951      443.27404    
     48000   300.50382     -0.11541374     0              16.903738      442.07585    
     48010   300.78925     -0.13572293     0              16.899594      442.18134    
     48020   300.55303     -0.1260862      0              16.895852      441.36348    
     48030   300.96248     -0.15327033     0              16.891858      441.23855    
     48040   301.55012     -0.19400373     0              16.884405      443.70584    
     48050   301.2485      -0.18623308     0              16.875093      447.82368    
     48060   300.15871     -0.12618674     0              16.873419      456.91673    
     48070   300.00079     -0.11895387     0              16.871708      442.25282    
     48080   299.16174     -0.068397318    0              16.874745      442.99427    
     48090   298.96122     -0.051440203    0              16.880345      443.90818    
     48100   299.00606     -0.048130369    0              16.886195      444.25276    
     48110   299.10538     -0.048383587    0              16.891567      444.40843    
     48120   299.171       -0.047219369    0              16.896447      444.60112    
     48130   299.17328     -0.042639057    0              16.901157      444.93688    
     48140   299.14573     -0.036258109    0              16.905977      445.36226    
     48150   299.1536      -0.0318051      0              16.910876      445.70206    
     48160   299.28309     -0.034610246    0              16.915405      445.67927    
     48170   299.64024     -0.051770725    0              16.918472      445.01763    
     48180   299.90865     -0.065999844    0              16.919444      444.51811    
     48190   299.74692     -0.05587253     0              16.920412      444.80364    
     48200   299.60647     -0.045965117    0              16.922365      445.2884     
     48210   299.65104     -0.04626578     0              16.924588      445.34935    
     48220   299.77926     -0.052017935    0              16.926098      445.14779    
     48230   299.73639     -0.048207714    0              16.92748       445.31082    
     48240   299.81459     -0.05124712     0              16.92887       445.1873     
     48250   300.13066     -0.069006032    0              16.929011      444.40128    
     48260   300.48119     -0.090774307    0              16.927095      443.45395    
     48270   300.67974     -0.1054543      0              16.92366       442.8172     
     48280   300.79061     -0.11599664     0              16.919397      442.72048    
     48290   301.06087     -0.13634111     0              16.914359      441.50291    
     48300   301.75817     -0.18544085     0              16.904751      449.61089    
     48310   301.49163     -0.17430192     0              16.900795      460.56793    
     48320   301.2627      -0.17238136     0              16.889749      452.76689    
     48330   298.51729     -0.011853189    0              16.89479       483.18642    
     48340   300.96746     -0.15255388     0              16.892856      445.69304    
     48350   300.91614     -0.15471259     0              16.887791      441.13889    
     48360   300.71776     -0.14936438     0              16.881904      453.50639    
     48370   299.94105     -0.10365848     0              16.88362       466.26668    
     48380   301.30067     -0.18640591     0              16.877875      440.52128    
     48390   302.11263     -0.24147092     0              16.868796      438.54442    
     48400   295.64459      0.11695042     0              16.860898      542.3018     
     48410   302.13477     -0.22187502     0              16.889646      468.19329    
     48420   301.13687     -0.17515371     0              16.87985       439.10208    
     48430   300.14051     -0.12130627     0              16.877269      440.60018    
     48440   300.04326     -0.11634743     0              16.87672       441.28933    
     48450   299.66528     -0.094107537    0              16.877553      441.97662    
     48460   299.38888     -0.075453643    0              16.880553      442.77293    
     48470   299.52558     -0.07997031     0              16.883778      442.66669    
     48480   299.98047     -0.1042905      0              16.88522       441.61639    
     48490   300.86302     -0.1566732      0              16.882822      439.65828    
     48500   302.0674      -0.23389802     0              16.873807      441.3407     
     48510   301.79889     -0.22978899     0              16.862709      458.47307    
     48520   303.12552     -0.32001352     0              16.847619      441.5416     
     48530   302.44025     -0.29742573     0              16.831396      445.37138    
     48540   301.84244     -0.27455604     0              16.820409      460.96478    
     48550   301.56847     -0.27136466     0              16.808084      483.5992     
     48560   301.88192     -0.29779096     0              16.799409      455.22502    
     48570   300.48981     -0.22527621     0              16.793082      439.22046    
     48580   299.44572     -0.16536818     0              16.793857      437.9189     
     48590   298.95746     -0.13277175     0              16.798801      438.46249    
     48600   298.98021     -0.12790002     0              16.804961      438.51934    
     48610   299.5799      -0.15766564     0              16.809159      437.96633    
     48620   300.28781     -0.19792752     0              16.80899       442.31333    
     48630   300.82543     -0.23097831     0              16.806388      446.05912    
     48640   300.32901     -0.21101073     0              16.79824       459.77825    
     48650   299.15735     -0.12815272     0              16.814741      470.97655    
     48660   300.12521     -0.18417845     0              16.81353       437.10961    
     48670   299.11113     -0.12378147     0              16.816494      438.7676     
     48680   298.94514     -0.10845011     0              16.822425      439.84593    
     48690   299.36664     -0.12741289     0              16.827334      440.31245    
     48700   299.93396     -0.15792442     0              16.828953      444.62369    
     48710   299.87404     -0.1537765      0              16.829707      457.99535    
     48720   301.16835     -0.23253588     0              16.824252      459.18489    
     48730   297.51132     -0.0054315005   0              16.844238      499.6962     
     48740   300.76223     -0.19196968     0              16.841817      437.87896    
     48750   299.84395     -0.14070886     0              16.841071      438.71035    
     48760   300.04372     -0.15144543     0              16.841648      439.06942    
     48770   300.50193     -0.17934057     0              16.839704      442.83999    
     48780   300.20247     -0.16434465     0              16.83774       452.99085    
     48790   300.52914     -0.18512932     0              16.835456      444.13304    
     48800   300.00083     -0.15687695     0              16.833787      439.10604    
     48810   299.36463     -0.11865607     0              16.835977      439.69819    
     48820   299.15817     -0.10246806     0              16.840472      440.45559    
     48830   299.37418     -0.1103705      0              16.844803      440.33586    
     48840   299.99756     -0.14387696     0              16.846602      439.56517    
     48850   300.81959     -0.19311489     0              16.84392       440.88568    
     48860   301.11335     -0.21557057     0              16.838102      447.954      
     48870   301.72172     -0.25808487     0              16.830043      443.81238    
     48880   302.03444     -0.28694451     0              16.818894      441.24097    
     48890   301.93323     -0.29262635     0              16.80748       453.59931    
     48900   301.38518     -0.27189414     0              16.797173      472.81344    
     48910   300.85846     -0.2462351      0              16.793001      464.52586    
     48920   300.77327     -0.24722401     0              16.787187      440.55183    
     48930   299.69987     -0.18727475     0              16.786344      437.39319    
     48940   299.16127     -0.1530528      0              16.790063      437.58933    
     48950   299.32103     -0.15742252     0              16.794741      437.56242    
     48960   299.78778     -0.18247255     0              16.796126      445.78063    
     48970   295.8107       0.059571397    0              16.812926      499.48047    
     48980   300.33417     -0.19280666     0              16.816736      440.47345    
     48990   300.05004     -0.18125315     0              16.812198      451.85741    
     49000   297.89799     -0.017734945    0              16.853834      484.82688    
     49010   299.61164     -0.10870361     0              16.859919      441.03863    
     49020   299.07212     -0.073751544    0              16.864315      442.47963    
     49030   299.16754     -0.074025996    0              16.869445      442.71463    
     49040   299.45595     -0.086446777    0              16.873358      442.46538    
     49050   299.85507     -0.10714944     0              16.875259      442.02807    
     49060   300.32629     -0.13447596     0              16.874621      441.61974    
     49070   300.7871      -0.16390207     0              16.871293      441.36643    
     49080   301.53883     -0.21277919     0              16.86499       439.93225    
     49090   291.08268      0.34725156     0              16.832833      567.9071     
     49100   301.44953     -0.16953075     0              16.903181      483.34724    
     49110   303.45892     -0.2840219      0              16.902493      458.99537    
     49120   297.5633       0.04907416     0              16.901688      515.72446    
     49130   303.83983     -0.32068858     0              16.887399      438.04067    
     49140   303.15945     -0.30195214     0              16.867602      435.68885    
     49150   302.44926     -0.27738573     0              16.851946      433.90477    
     49160   301.88934     -0.25952231     0              16.838099      448.4823     
     49170   300.57928     -0.18445301     0              16.838972      471.67672    
     49180   302.64908     -0.3156292      0              16.82502       435.06613    
     49190   301.50712     -0.26254215     0              16.813431      435.16321    
     49200   300.7849      -0.22703115     0              16.808039      434.64256    
     49210   264.33035      1.932328       0              16.902781      802.80065    
     49220   301.24582     -0.18892224     0              16.872253      437.64372    
     49230   301.28402     -0.19746169     0              16.865877      437.768      
     49240   302.23853     -0.26194492     0              16.855452      438.11553    
     49250   301.62215     -0.23988076     0              16.842608      455.55975    
     49260   301.25613     -0.22411067     0              16.837648      455.50523    
     49270   301.22244     -0.23062618     0              16.829224      439.80931    
     49280   300.29808     -0.18208893     0              16.82541       443.39014    
     49290   299.9109      -0.16039718     0              16.825174      446.43887    
     49300   299.8941      -0.15886757     0              16.825752      443.98257    
     49310   299.73549     -0.14890176     0              16.826735      441.00826    
     49320   299.48625     -0.132405       0              16.829116      439.9476     
     49330   299.55858     -0.13357209     0              16.832045      439.51527    
     49340   299.93828     -0.15375879     0              16.833363      440.20866    
     49350   300.11086     -0.16384647     0              16.83305       441.8935     
     49360   300.11235     -0.16464085     0              16.832339      439.54749    
     49370   300.12342     -0.16578484     0              16.831823      438.14059    
     49380   300.48324     -0.18792259     0              16.830063      439.3843     
     49390   300.83476     -0.21171751     0              16.826176      442.33677    
     49400   301.18454     -0.23755624     0              16.820148      440.46154    
     49410   300.89812     -0.22753249     0              16.81395       439.75477    
     49420   300.25848     -0.19448617     0              16.81077       438.3351     
     49430   299.49704     -0.15043955     0              16.811692      437.97578    
     49440   298.92749     -0.11331601     0              16.816559      439.2867     
     49450   298.84106     -0.1017497      0              16.823231      440.20935    
     49460   299.28791     -0.12162636     0              16.828661      440.99213    
     49470   299.51754     -0.13226665     0              16.831026      451.21131    
     49480   297.67595     -0.017732016    0              16.841262      480.58259    
     49490   300.29832     -0.16298565     0              16.844527      446.13287    
     49500   300.24541     -0.16168617     0              16.84283       438.98192    
     49510   300.15003     -0.15730762     0              16.841807      438.29322    
     49520   300.29744     -0.1667251      0              16.840738      437.74353    
     49530   300.91063     -0.20606489     0              16.836126      444.27404    
     49540   295.36091      0.12730435     0              16.855185      515.51856    
     49550   300.90498     -0.18826412     0              16.853607      439.09011    
     49560   300.1844      -0.14971415     0              16.851347      439.3428     
     49570   300.38066     -0.16225739     0              16.849919      439.38592    
     49580   300.96099     -0.19907039     0              16.845973      438.88535    
     49590   301.25071     -0.22228251     0              16.839169      440.76088    
     49600   300.82438     -0.20424126     0              16.833065      439.62045    
     49610   299.84482     -0.15044148     0              16.831387      438.73181    
     49620   299.17077     -0.10895021     0              16.834703      439.99829    
     49630   299.12174     -0.10097372     0              16.839903      440.38944    
     49640   299.73564     -0.13239841     0              16.843247      439.76614    
     49650   300.19338     -0.15874245     0              16.842827      441.29919    
     49660   299.70589     -0.13107071     0              16.842889      439.92955    
     49670   299.17967     -0.097505314    0              16.846652      440.78326    
     49680   300.06283     -0.14457151     0              16.849604      440.67886    
     49690   283.23528      0.84832834     0              16.889469      629.82738    
     49700   300.38301     -0.099779125    0              16.91253       442.86888    
     49710   299.84548     -0.069317876    0              16.912548      444.13572    
     49720   299.95059     -0.074617436    0              16.913201      444.06098    
     49730   300.23645     -0.091345901    0              16.912663      443.52378    
     49740   300.71785     -0.1213594      0              16.909914      442.62191    
     49750   301.4982      -0.17194958     0              16.903519      441.69488    
     49760   302.53453     -0.24253797     0              16.891624      444.19814    
     49770   301.20271     -0.18089983     0              16.877833      479.21997    
     49780   302.12284     -0.23516557     0              16.87568       476.94191    
     49790   303.19664     -0.31452906     0              16.857131      456.44627    
     49800   301.83117     -0.25209201     0              16.842234      440.71728    
     49810   300.56585     -0.18569816     0              16.836967      439.73665    
     49820   300.78362     -0.20393203     0              16.831066      450.30073    
     49830   297.25651      0.017270841    0              16.852509      497.46576    
     49840   300.44509     -0.16378986     0              16.852035      440.63979    
     49850   299.70986     -0.12179426     0              16.852391      442.02404    
     49860   299.7338      -0.12143987     0              16.854101      443.16695    
     49870   299.87591     -0.12844641     0              16.855143      445.43193    
     49880   299.8359      -0.12549765     0              16.855826      450.83896    
     49890   299.66611     -0.1142596      0              16.857448      455.9986     
     49900   299.94021     -0.1286402      0              16.858591      451.45804    
     49910   300.04884     -0.13496985     0              16.858414      445.62242    
     49920   299.94211     -0.12885943     0              16.858479      443.09182    
     49930   299.97271     -0.1302179      0              16.858854      441.8585     
     49940   300.37102     -0.15367357     0              16.857957      440.64901    
     49950   301.04254     -0.19594488     0              16.853717      440.48386    
     49960   301.76922     -0.24518225     0              16.845635      440.02362    
     49970   301.90085     -0.26489211     0              16.833381      449.37979    
     49980   301.2076      -0.23165553     0              16.827355      453.32804    
     49990   300.21574     -0.18026822     0              16.822568      446.92613    
     50000   299.21447     -0.12101776     0              16.82511       454.54524    
Loop time of 0.574002 on 1 procs for 50000 steps with 20 atoms

Performance: 7526.108 ns/day, 0.003 hours/ns, 87107.732 timesteps/s
93.1% CPU use with 1 MPI tasks x no OpenMP threads

MPI task timing breakdown:
Section |  min time  |  avg time  |  max time  |%varavg| %total
---------------------------------------------------------------
Pair    | 0.29912    | 0.29912    | 0.29912    |   0.0 | 52.11
Neigh   | 0.056914   | 0.056914   | 0.056914   |   0.0 |  9.92
Comm    | 0.0783     | 0.0783     | 0.0783     |   0.0 | 13.64
Output  | 0.070644   | 0.070644   | 0.070644   |   0.0 | 12.31
Modify  | 0.059595   | 0.059595   | 0.059595   |   0.0 | 10.38
Other   |            | 0.009432   |            |       |  1.64

Nlocal:             20 ave          20 max          20 min
Histogram: 1 0 0 0 0 0 0 0 0 0
Nghost:            716 ave         716 max         716 min
Histogram: 1 0 0 0 0 0 0 0 0 0
Neighs:           1328 ave        1328 max        1328 min
Histogram: 1 0 0 0 0 0 0 0 0 0

Total # of neighbors = 1328
Ave neighs/atom = 66.4
Neighbor list builds = 2157
Dangerous builds = 0
Total wall time: 0:00:00
