LAMMPS (23 Jun 2022 - Update 4)
# main parameters
units real
dimension 3
atom_style atomic
pair_style lj/cut 18
boundary p p p

read_data twoparticle.data
Reading data file ...
  orthogonal box = (-6 -6 -6) to (6 6 6)
  1 by 1 by 1 MPI processor grid
  reading atoms ...
  2 atoms
  reading velocities ...
  2 velocities
  read_data CPU = 0.000 seconds
#region myreg block -6 6 -6 6 -6 6
#create_box 1 myreg
#create_atoms 1 random 20 14141 myreg

mass 1 1
pair_coeff 1 1 0.1 1.0
neigh_modify every 1

#velocity all create 300 4928459
fix mynve all nve
fix myber all temp/berendsen 15 15 100
timestep 0.1

thermo 10
dump mydmp all atom 10 dump.lammpstrj

variable Epot equal pe
variable Ekin equal ke
variable pressure equal press
variable temperature equal temp
fix myat1 all ave/time 10 1 10 v_Epot file Epot.dat
fix myat2 all ave/time 10 1 10 v_Ekin file Ekin.dat
fix myat3 all ave/time 10 1 10 v_pressure file pressure.dat
fix myat4 all ave/time 10 1 10 v_temperature file temperature.dat
run 5000
Generated 0 of 0 mixed pair_coeff terms from geometric mixing rule
Neighbor list info ...
  update every 1 steps, delay 10 steps, check yes
  max neighbors/atom: 2000, page size: 100000
  master list distance cutoff = 20
  ghost atom cutoff = 20
  binsize = 10, bins = 2 2 2
  1 neighbor lists, perpetual/occasional/extra = 1 0 0
  (1) pair lj/cut, perpetual
      attributes: half, newton on
      pair build: half/bin/atomonly/newton
      stencil: half/bin/3d
      bin: standard
Per MPI rank memory allocation (min/avg/max) = 3.958 | 3.958 | 3.958 Mbytes
   Step          Temp          E_pair         E_mol          TotEng         Press     
         0   16.666646     -0.00010081219  0              0.049579294    1.306232     
        10   16.6505       -0.00010214755  0              0.04952983     1.3048529    
        20   16.634522     -0.000103504    0              0.049480845    1.3034854    
        30   16.61871      -0.00010488193  0              0.049432335    1.3021292    
        40   16.603062     -0.00010628172  0              0.049384293    1.3007843    
        50   16.587578     -0.00010770375  0              0.049336715    1.2994506    
        60   16.572255     -0.00010914842  0              0.049289597    1.2981277    
        70   16.557093     -0.00011061613  0              0.049242933    1.2968157    
        80   16.54209      -0.00011210731  0              0.04919672     1.2955143    
        90   16.527243     -0.00011362236  0              0.049150951    1.2942235    
       100   16.512553     -0.00011516173  0              0.049105623    1.292943     
       110   16.498017     -0.00011672584  0              0.04906073     1.2916727    
       120   16.483635     -0.00011831515  0              0.049016269    1.2904125    
       130   16.469404     -0.00011993011  0              0.048972234    1.2891623    
       140   16.455323     -0.00012157119  0              0.048928621    1.2879218    
       150   16.441392     -0.00012323887  0              0.048885427    1.286691     
       160   16.427608     -0.00012493363  0              0.048842645    1.2854697    
       170   16.413971     -0.00012665597  0              0.048800272    1.2842577    
       180   16.400478     -0.00012840638  0              0.048758304    1.283055     
       190   16.38713      -0.0001301854   0              0.048716736    1.2818613    
       200   16.373924     -0.00013199355  0              0.048675564    1.2806766    
       210   16.36086      -0.00013383136  0              0.048634784    1.2795006    
       220   16.347935     -0.00013569939  0              0.048594391    1.2783334    
       230   16.33515      -0.0001375982   0              0.048554382    1.2771746    
       240   16.322503     -0.00013952835  0              0.048514751    1.2760242    
       250   16.309992     -0.00014149045  0              0.048475496    1.274882     
       260   16.297616     -0.00014348507  0              0.048436612    1.273748     
       270   16.285375     -0.00014551284  0              0.048398095    1.2726219    
       280   16.273266     -0.00014757438  0              0.048359941    1.2715036    
       290   16.26129      -0.00014967032  0              0.048322147    1.270393     
       300   16.249445     -0.00015180132  0              0.048284707    1.26929      
       310   16.237729     -0.00015396803  0              0.048247619    1.2681944    
       320   16.226143     -0.00015617114  0              0.048210878    1.267106     
       330   16.214684     -0.00015841134  0              0.048174481    1.2660248    
       340   16.203351     -0.00016068934  0              0.048138423    1.2649505    
       350   16.192145     -0.00016300586  0              0.048102702    1.2638831    
       360   16.181063     -0.00016536164  0              0.048067313    1.2628225    
       370   16.170105     -0.00016775744  0              0.048032253    1.2617684    
       380   16.159269     -0.00017019402  0              0.047997517    1.2607208    
       390   16.148555     -0.00017267218  0              0.047963103    1.2596794    
       400   16.137962     -0.00017519272  0              0.047929007    1.2586443    
       410   16.127489     -0.00017775646  0              0.047895225    1.2576151    
       420   16.117135     -0.00018036424  0              0.047861753    1.2565919    
       430   16.106899     -0.00018301693  0              0.047828588    1.2555744    
       440   16.09678      -0.00018571541  0              0.047795727    1.2545625    
       450   16.086777     -0.00018846056  0              0.047763166    1.2535561    
       460   16.07689      -0.00019125332  0              0.047730901    1.252555     
       470   16.067117     -0.00019409461  0              0.04769893     1.2515591    
       480   16.057458     -0.0001969854   0              0.047667248    1.2505683    
       490   16.047913     -0.00019992667  0              0.047635852    1.2495824    
       500   16.038479     -0.00020291942  0              0.04760474     1.2486013    
       510   16.029157     -0.00020596468  0              0.047573907    1.2476247    
       520   16.019945     -0.0002090635   0              0.047543351    1.2466527    
       530   16.010844     -0.00021221694  0              0.047513067    1.245685     
       540   16.001851     -0.00021542611  0              0.047483053    1.2447215    
       550   15.992968     -0.00021869213  0              0.047453306    1.2437621    
       560   15.984191     -0.00022201614  0              0.047423823    1.2428065    
       570   15.975523     -0.00022539931  0              0.047394599    1.2418547    
       580   15.96696      -0.00022884286  0              0.047365632    1.2409066    
       590   15.958503     -0.00023234799  0              0.047336919    1.2399619    
       600   15.950152     -0.00023591598  0              0.047308457    1.2390205    
       610   15.941905     -0.0002395481   0              0.047280242    1.2380823    
       620   15.933762     -0.00024324568  0              0.047252271    1.2371471    
       630   15.925722     -0.00024701004  0              0.047224542    1.2362147    
       640   15.917785     -0.00025084258  0              0.04719705     1.2352851    
       650   15.90995      -0.0002547447   0              0.047169795    1.234358     
       660   15.902217     -0.00025871784  0              0.047142771    1.2334333    
       670   15.894585     -0.00026276347  0              0.047115976    1.2325108    
       680   15.887054     -0.00026688311  0              0.047089407    1.2315905    
       690   15.879623     -0.0002710783   0              0.047063061    1.230672     
       700   15.872292     -0.00027535062  0              0.047036936    1.2297553    
       710   15.86506      -0.00027970169  0              0.047011027    1.2288402    
       720   15.857926     -0.00028413317  0              0.046985333    1.2279265    
       730   15.850892     -0.00028864675  0              0.04695985     1.2270141    
       740   15.843955     -0.00029324418  0              0.046934575    1.2261028    
       750   15.837116     -0.00029792723  0              0.046909506    1.2251924    
       760   15.830374     -0.00030269773  0              0.046884639    1.2242827    
       770   15.823729     -0.00030755753  0              0.046859972    1.2233736    
       780   15.81718      -0.00031250855  0              0.046835501    1.2224649    
       790   15.810728     -0.00031755275  0              0.046811224    1.2215565    
       800   15.804372     -0.00032269213  0              0.046787138    1.220648     
       810   15.798111     -0.00032792875  0              0.04676324     1.2197395    
       820   15.791946     -0.0003332647   0              0.046739528    1.2188306    
       830   15.785877     -0.00033870215  0              0.046715998    1.2179211    
       840   15.779902     -0.0003442433   0              0.046692647    1.217011     
       850   15.774022     -0.00034989041  0              0.046669473    1.2161       
       860   15.768237     -0.0003556458   0              0.046646473    1.2151878    
       870   15.762546     -0.00036151184  0              0.046623644    1.2142744    
       880   15.75695      -0.00036749098  0              0.046600983    1.2133594    
       890   15.751448     -0.00037358569  0              0.046578488    1.2124428    
       900   15.74604      -0.00037979856  0              0.046556155    1.2115242    
       910   15.740726     -0.00038613218  0              0.046533982    1.2106035    
       920   15.735506     -0.00039258925  0              0.046511967    1.2096805    
       930   15.730381     -0.00039917253  0              0.046490105    1.2087549    
       940   15.725349     -0.00040588483  0              0.046468395    1.2078265    
       950   15.720412     -0.00041272906  0              0.046446833    1.2068951    
       960   15.715569     -0.00041970818  0              0.046425417    1.2059605    
       970   15.71082      -0.00042682524  0              0.046404144    1.2050224    
       980   15.706165     -0.00043408337  0              0.046383011    1.2040805    
       990   15.701605     -0.00044148575  0              0.046362016    1.2031348    
      1000   15.697139     -0.00044903569  0              0.046341155    1.2021848    
      1010   15.692769     -0.00045673654  0              0.046320426    1.2012304    
      1020   15.688493     -0.00046459177  0              0.046299825    1.2002712    
      1030   15.684312     -0.00047260493  0              0.046279351    1.1993072    
      1040   15.680227     -0.00048077964  0              0.046259       1.1983378    
      1050   15.676238     -0.00048911966  0              0.046238769    1.197363     
      1060   15.672345     -0.0004976288   0              0.046218656    1.1963824    
      1070   15.668549     -0.000506311    0              0.046198657    1.1953957    
      1080   15.664849     -0.00051517031  0              0.04617877     1.1944027    
      1090   15.661247     -0.00052421085  0              0.046158991    1.193403     
      1100   15.657742     -0.00053343689  0              0.046139319    1.1923964    
      1110   15.654336     -0.00054285278  0              0.046119749    1.1913826    
      1120   15.651028     -0.00055246302  0              0.04610028     1.1903611    
      1130   15.64782      -0.00056227221  0              0.046080907    1.1893319    
      1140   15.644712     -0.00057228507  0              0.046061629    1.1882944    
      1150   15.641704     -0.00058250645  0              0.046042442    1.1872483    
      1160   15.638797     -0.00059294134  0              0.046023342    1.1861934    
      1170   15.635992     -0.00060359486  0              0.046004328    1.1851293    
      1180   15.63329      -0.00061447227  0              0.045985396    1.1840556    
      1190   15.630691     -0.00062557898  0              0.045966543    1.182972     
      1200   15.628197     -0.00063692052  0              0.045947766    1.1818781    
      1210   15.625807     -0.00064850261  0              0.045929061    1.1807734    
      1220   15.623524     -0.00066033111  0              0.045910426    1.1796577    
      1230   15.621347     -0.00067241203  0              0.045891857    1.1785305    
      1240   15.619279     -0.00068475158  0              0.045873352    1.1773914    
      1250   15.617319     -0.0006973561   0              0.045854906    1.1762401    
      1260   15.61547      -0.00071023215  0              0.045836517    1.175076     
      1270   15.613732     -0.00072338643  0              0.045818182    1.1738987    
      1280   15.612106     -0.00073682587  0              0.045799896    1.1727079    
      1290   15.610594     -0.00075055758  0              0.045781657    1.1715029    
      1300   15.609197     -0.00076458886  0              0.045763462    1.1702834    
      1310   15.607916     -0.00077892722  0              0.045745306    1.1690489    
      1320   15.606753     -0.0007935804   0              0.045727186    1.1677989    
      1330   15.60571      -0.00080855635  0              0.0457091      1.1665329    
      1340   15.604787     -0.00082386325  0              0.045691042    1.1652503    
      1350   15.603986     -0.00083950952  0              0.04567301     1.1639507    
      1360   15.60331      -0.00085550381  0              0.045654999    1.1626334    
      1370   15.602759     -0.00087185504  0              0.045637007    1.161298     
      1380   15.602337     -0.00088857238  0              0.045619029    1.1599438    
      1390   15.602043     -0.00090566526  0              0.045601062    1.1585702    
      1400   15.601881     -0.00092314341  0              0.045583101    1.1571767    
      1410   15.601853     -0.00094101682  0              0.045565143    1.1557627    
      1420   15.60196      -0.00095929579  0              0.045547184    1.1543274    
      1430   15.602205     -0.00097799092  0              0.045529219    1.1528703    
      1440   15.60259      -0.00099711313  0              0.045511244    1.1513906    
      1450   15.603118     -0.0010166737   0              0.045493256    1.1498877    
      1460   15.60379      -0.0010366841   0              0.04547525     1.1483608    
      1470   15.60461      -0.0010571564   0              0.045457221    1.1468093    
      1480   15.605579     -0.0010781029   0              0.045439165    1.1452324    
      1490   15.606702     -0.0010995361   0              0.045421078    1.1436292    
      1500   15.60798      -0.0011214692   0              0.045402954    1.1419991    
      1510   15.609417     -0.0011439155   0              0.04538479     1.1403412    
      1520   15.611015     -0.0011668891   0              0.045366581    1.1386546    
      1530   15.612778     -0.0011904041   0              0.045348321    1.1369385    
      1540   15.614709     -0.0012144753   0              0.045330005    1.135192     
      1550   15.616811     -0.0012391178   0              0.04531163     1.1334142    
      1560   15.619088     -0.0012643475   0              0.045293188    1.1316041    
      1570   15.621544     -0.0012901803   0              0.045274676    1.1297608    
      1580   15.624183     -0.0013166329   0              0.045256088    1.1278833    
      1590   15.627007     -0.0013437227   0              0.045237418    1.1259706    
      1600   15.630022     -0.0013714672   0              0.04521866     1.1240216    
      1610   15.633232     -0.0013998848   0              0.045199809    1.1220352    
      1620   15.63664      -0.0014289944   0              0.04518086     1.1200102    
      1630   15.640252     -0.0014588154   0              0.045161805    1.1179456    
      1640   15.644072     -0.0014893681   0              0.045142639    1.1158402    
      1650   15.648105     -0.001520673    0              0.045123355    1.1136927    
      1660   15.652356     -0.0015527518   0              0.045103948    1.1115018    
      1670   15.65683      -0.0015856266   0              0.04508441     1.1092663    
      1680   15.661533     -0.0016193202   0              0.045064735    1.1069849    
      1690   15.66647      -0.0016538562   0              0.045044916    1.104656     
      1700   15.671648     -0.0016892591   0              0.045024946    1.1022784    
      1710   15.677071     -0.0017255541   0              0.045004817    1.0998505    
      1720   15.682747     -0.0017627672   0              0.044984522    1.0973708    
      1730   15.688681     -0.0018009254   0              0.044964053    1.0948378    
      1740   15.694881     -0.0018400566   0              0.044943403    1.0922498    
      1750   15.701354     -0.0018801895   0              0.044922564    1.0896052    
      1760   15.708106     -0.0019213538   0              0.044901527    1.0869022    
      1770   15.715146     -0.0019635805   0              0.044880284    1.0841392    
      1780   15.72248      -0.0020069013   0              0.044858826    1.0813141    
      1790   15.730118     -0.0020513492   0              0.044837144    1.0784252    
      1800   15.738067     -0.0020969582   0              0.044815229    1.0754705    
      1810   15.746336     -0.0021437636   0              0.044793072    1.072448     
      1820   15.754934     -0.0021918019   0              0.044770662    1.0693555    
      1830   15.76387      -0.002241111    0              0.044747991    1.066191     
      1840   15.773154     -0.0022917299   0              0.044725047    1.0629522    
      1850   15.782797     -0.0023436992   0              0.044701821    1.0596368    
      1860   15.792808     -0.0023970608   0              0.0446783      1.0562424    
      1870   15.803199     -0.0024518582   0              0.044654475    1.0527665    
      1880   15.81398      -0.0025081364   0              0.044630333    1.0492067    
      1890   15.825163     -0.0025659421   0              0.044605863    1.0455603    
      1900   15.836761     -0.0026253237   0              0.044581053    1.0418246    
      1910   15.848786     -0.0026863313   0              0.044555889    1.0379967    
      1920   15.861251     -0.0027490169   0              0.04453036     1.0340737    
      1930   15.87417      -0.0028134344   0              0.044504451    1.0300527    
      1940   15.887557     -0.0028796398   0              0.044478149    1.0259305    
      1950   15.901426     -0.002947691    0              0.04445144     1.0217039    
      1960   15.915793     -0.0030176483   0              0.044424309    1.0173695    
      1970   15.930675     -0.0030895742   0              0.044396741    1.0129239    
      1980   15.946086     -0.0031635334   0              0.04436872     1.0083636    
      1990   15.962045     -0.0032395935   0              0.04434023     1.0036847    
      2000   15.978569     -0.0033178242   0              0.044311255    0.99888345   
      2010   15.995677     -0.0033982983   0              0.044281777    0.99395589   
      2020   16.013389     -0.0034810912   0              0.044251779    0.98889787   
      2030   16.031724     -0.0035662814   0              0.044221242    0.98370512   
      2040   16.050704     -0.0036539505   0              0.044190148    0.9783732    
      2050   16.07035      -0.0037441831   0              0.044158476    0.97289753   
      2060   16.090685     -0.0038370674   0              0.044126208    0.96727332   
      2070   16.111733     -0.0039326952   0              0.04409332     0.96149564   
      2080   16.133519     -0.0040311619   0              0.044059793    0.95555937   
      2090   16.156068     -0.0041325666   0              0.044025603    0.94945919   
      2100   16.179407     -0.0042370128   0              0.043990727    0.94318957   
      2110   16.203565     -0.0043446081   0              0.043955142    0.93674479   
      2120   16.228571     -0.0044554645   0              0.043918822    0.93011891   
      2130   16.254454     -0.0045696988   0              0.043881741    0.92330576   
      2140   16.281248     -0.0046874326   0              0.043843874    0.91629892   
      2150   16.308984     -0.0048087928   0              0.043805191    0.90909176   
      2160   16.337699     -0.0049339114   0              0.043765665    0.90167735   
      2170   16.367427     -0.0050629265   0              0.043725266    0.89404852   
      2180   16.398208     -0.0051959817   0              0.043683962    0.88619782   
      2190   16.430081     -0.0053332272   0              0.043641722    0.8781175    
      2200   16.463086     -0.0054748196   0              0.043598513    0.8697995    
      2210   16.497268     -0.0056209225   0              0.0435543      0.86123546   
      2220   16.532671     -0.0057717067   0              0.043509046    0.85241667   
      2230   16.569344     -0.0059273505   0              0.043462716    0.84333408   
      2240   16.607335     -0.0060880407   0              0.04341527     0.8339783    
      2250   16.646697     -0.006253972    0              0.043366668    0.82433954   
      2260   16.687483     -0.0064253485   0              0.043316869    0.81440762   
      2270   16.729751     -0.0066023834   0              0.043265828    0.80417195   
      2280   16.773562     -0.0067853      0              0.043213501    0.79362153   
      2290   16.818976     -0.0069743318   0              0.04315984     0.78274489   
      2300   16.86606      -0.0071697236   0              0.043104798    0.77153011   
      2310   16.914883     -0.0073717318   0              0.043048322    0.75996478   
      2320   16.965517     -0.0075806249   0              0.042990359    0.74803597   
      2330   17.018038     -0.0077966846   0              0.042930855    0.73573024   
      2340   17.072526     -0.0080202061   0              0.042869752    0.7230336    
      2350   17.129065     -0.0082514994   0              0.04280699     0.70993147   
      2360   17.187742     -0.0084908896   0              0.042742506    0.69640869   
      2370   17.248651     -0.0087387182   0              0.042676234    0.68244945   
      2380   17.311889     -0.0089953437   0              0.042608108    0.66803733   
      2390   17.377557     -0.0092611431   0              0.042538054    0.65315519   
      2400   17.445765     -0.0095365125   0              0.042466       0.63778524   
      2410   17.516627     -0.0098218685   0              0.042391868    0.62190891   
      2420   17.590261     -0.01011765     0              0.042315576    0.60550691   
      2430   17.666794     -0.010424317    0              0.04223704     0.58855916   
      2440   17.74636      -0.010742357    0              0.04215617     0.57104475   
      2450   17.829098     -0.01107228     0              0.042072875    0.55294195   
      2460   17.915159     -0.011414628    0              0.041987057    0.53422816   
      2470   18.004697     -0.011769968    0              0.041898615    0.51487988   
      2480   18.09788      -0.0121389      0              0.041807441    0.49487272   
      2490   18.194881     -0.012522058    0              0.041713425    0.47418131   
      2500   18.295886     -0.012920112    0              0.04161645     0.45277937   
      2510   18.401091     -0.013333766    0              0.041516392    0.43063959   
      2520   18.510704     -0.013763768    0              0.041413123    0.40773373   
      2530   18.624943     -0.014210907    0              0.041306509    0.38403251   
      2540   18.744041     -0.014676019    0              0.041196406    0.35950569   
      2550   18.868245     -0.015159987    0              0.041082667    0.33412203   
      2560   18.997816     -0.015663747    0              0.040965135    0.30784933   
      2570   19.133033     -0.016188291    0              0.040843644    0.28065445   
      2580   19.274188     -0.01673467     0              0.040718023    0.25250338   
      2590   19.421594     -0.017303997    0              0.040588087    0.2233613    
      2600   19.575585     -0.017897453    0              0.040453647    0.19319266   
      2610   19.736512     -0.018516294    0              0.040314498    0.16196131   
      2620   19.90475      -0.01916185     0              0.040170429    0.12963067   
      2630   20.080699     -0.019835534    0              0.040021215    0.096163905  
      2640   20.264782     -0.020538847    0              0.039866618    0.061524196  
      2650   20.457451     -0.021273386    0              0.039706389    0.025675044  
      2660   20.659186     -0.022040845    0              0.039540264   -0.01141934   
      2670   20.870498     -0.022843028    0              0.039367963   -0.049793553  
      2680   21.091932     -0.02368185     0              0.039189193   -0.089480416  
      2690   21.324067     -0.02455935     0              0.039003642   -0.13051024   
      2700   21.567518     -0.025477694    0              0.03881098    -0.17290997   
      2710   21.822942     -0.026439186    0              0.038610859   -0.21670205   
      2720   22.091036     -0.027446271    0              0.038402911   -0.26190316   
      2730   22.372542     -0.028501553    0              0.038186746   -0.30852259   
      2740   22.668247     -0.029607789    0              0.03796195    -0.35656027   
      2750   22.978987     -0.03076791     0              0.037728086   -0.40600441   
      2760   23.305648     -0.031985018    0              0.037484692   -0.45682856   
      2770   23.649166     -0.033262396    0              0.037231277   -0.50898811   
      2780   24.010531     -0.034603511    0              0.036967321   -0.56241593   
      2790   24.390783     -0.036012016    0              0.036692276   -0.6170171    
      2800   24.791015     -0.037491746    0              0.03640556    -0.67266247   
      2810   25.212367     -0.039046717    0              0.036106558   -0.72918075   
      2820   25.656022     -0.040681107    0              0.035794622   -0.78634882   
      2830   26.123202     -0.04239924     0              0.035469064   -0.84387987   
      2840   26.615153     -0.044205598    0              0.035129116   -0.9014125    
      2850   27.133128     -0.046104589    0              0.034774113   -0.95847782   
      2860   27.678373     -0.048100762    0              0.034403209   -1.0144997    
      2870   28.252085     -0.050198527    0              0.034015573   -1.0687523    
      2880   28.855383     -0.052402082    0              0.033610334   -1.1203301    
      2890   29.489244     -0.05471524     0              0.033186594   -1.1681058    
      2900   30.154433     -0.05714121     0              0.032743428   -1.2106783    
      2910   30.851409     -0.059682299    0              0.032279893   -1.2463077    
      2920   31.580193     -0.06233952     0              0.031795036   -1.2728351    
      2930   32.340202     -0.065112081    0              0.031287918   -1.2875827    
      2940   33.130032     -0.067996707    0              0.030757625   -1.2872288    
      2950   33.947174     -0.07098677     0              0.030203306   -1.2676542    
      2960   34.787644     -0.074071152    0              0.029624206   -1.2237501    
      2970   35.645513     -0.077232786    0              0.029019718   -1.1491824    
      2980   36.512301     -0.080446781    0              0.028389454   -1.0361022    
      2990   37.376208     -0.083678047    0              0.02773333    -0.87479343   
      3000   38.221152     -0.086878314    0              0.02705168    -0.65325105   
      3010   39.025582     -0.089982442    0              0.026345405   -0.35668527   
      3020   39.761047     -0.092903971    0              0.025616157    0.033042785  
      3030   40.390525     -0.095529909    0              0.024866574    0.53803161   
      3040   40.866578     -0.097714943    0              0.024100563    1.184943     
      3050   41.129489     -0.099275551    0              0.023323644    2.0054936    
      3060   41.105721     -0.099985003    0              0.022543344    3.0366456    
      3070   40.707287     -0.099571067    0              0.021769625    4.3201826    
      3080   39.833041     -0.097719424    0              0.021015305    5.9011822    
      3090   38.373383     -0.094087382    0              0.020296385    7.8246867    
      3100   36.22043      -0.088334063    0              0.01963216     10.129676    
      3110   33.285953     -0.080174205    0              0.019044897    12.839404    
      3120   29.528852     -0.069461073    0              0.018558827    15.947525    
      3130   24.991675     -0.056297294    0              0.018198142    19.400608    
      3140   19.840783     -0.041157787    0              0.017983819    23.079967    
      3150   14.39732      -0.024986346    0              0.017929329    26.789123    
      3160   9.1386357     -0.0092046958   0              0.018035841    30.256457    
      3170   4.6484906      0.0044319504   0              0.018288218    33.162876    
      3180   1.505364       0.01416635     0              0.018653554    35.199223    
      3190   0.10759285     0.01876341     0              0.019084124    36.156736    
      3200   0.015422437    0.01948509     0              0.019531061    36.31649     
      3210   0.015409106    0.019932287    0              0.019978219    36.419907    
      3220   0.88392931     0.0177816      0              0.020416425    35.990471    
      3230   3.8802708      0.0092258475   0              0.020792198    34.231312    
      3240   8.4311473     -0.0040805338   0              0.021051115    31.434908    
      3250   13.844094     -0.020108248    0              0.021158366    27.959703    
      3260   19.444676     -0.036861134    0              0.021099752    24.167397    
      3270   24.69189      -0.052722756    0              0.020879078    20.365006    
      3280   29.230598     -0.066617691    0              0.020513169    16.774554    
      3290   32.885723     -0.077999734    0              0.02002636     13.530452    
      3300   35.623156     -0.086740098    0              0.019445764    10.694058    
      3310   37.501426     -0.092986735    0              0.018797891    8.274477     
      3320   38.629002     -0.097039102    0              0.018106614    6.248311     
      3330   39.133026     -0.099255889    0              0.017392228    4.5751254    
      3340   39.139519     -0.099996241    0              0.016671232    3.2080582    
      3350   38.762652     -0.099587549    0              0.015956553    2.1003249    
      3360   38.100179     -0.098311412    0              0.015257985    1.2087371    
      3370   37.232622     -0.096400683    0              0.014582689    0.49526273   
      3380   36.224443     -0.094042488    0              0.013935696   -0.072587813  
      3390   35.126118     -0.091383937    0              0.013320347   -0.52201354   
      3400   33.976434     -0.088538622    0              0.012738675   -0.87547591   
      3410   32.804698     -0.085592861    0              0.012191713   -1.1513546    
      3420   31.632672     -0.082611236    0              0.011679751   -1.3645986    
      3430   30.476214     -0.079641277    0              0.011202527   -1.52732      
      3440   29.346608     -0.076717281    0              0.010759384   -1.6493105    
      3450   28.251642     -0.073863393    0              0.010349387   -1.7384776    
      3460   27.196445     -0.071096022    0              0.0099714147  -1.8012051    
      3470   26.184146     -0.06842574     0              0.0096242252  -1.8426485    
      3480   25.216387     -0.065858749    0              0.0093065096  -1.8669745    
      3490   24.293711     -0.06339801     0              0.0090169285  -1.8775536    
      3500   23.415866     -0.061044109    0              0.0087541396  -1.8771152    
      3510   22.582029     -0.058795921    0              0.0085168179  -1.8678722    
      3520   21.790981     -0.056651105    0              0.0083036699  -1.8516209    
      3530   21.041238     -0.054606492    0              0.0081134429  -1.8298205    
      3540   20.331148     -0.05265836     0              0.0079449313  -1.8036577    
      3550   19.658963     -0.050802654    0              0.0077969807  -1.7740982    
      3560   19.022894     -0.049035143    0              0.0076684895  -1.741928     
      3570   18.421148     -0.047351533    0              0.0075584096  -1.7077872    
      3580   17.851959     -0.045747552    0              0.007465746   -1.6721966    
      3590   17.313606     -0.044219015    0              0.0073895556  -1.6355801    
      3600   16.804426     -0.042761811    0              0.0073289928  -1.5982782    
      3610   16.322825     -0.041372122    0              0.0072831195  -1.5605774    
      3620   15.867279     -0.040046161    0              0.0072511851  -1.5226999    
      3630   15.436341     -0.038780365    0              0.007232436   -1.4848277    
      3640   15.028639     -0.037571358    0              0.0072261607  -1.4471068    
      3650   14.642876     -0.036415945    0              0.0072316874  -1.4096538    
      3660   14.277828     -0.035311111    0              0.0072483816  -1.3725609    
      3670   13.932342     -0.034254019    0              0.0072756445  -1.3359003    
      3680   13.605332     -0.033242       0              0.0073129102  -1.2997279    
      3690   13.295778     -0.032272545    0              0.0073596444  -1.264086     
      3700   13.002722     -0.031343302    0              0.0074153422  -1.2290058    
      3710   12.725262     -0.030452061    0              0.0074795261  -1.1945095    
      3720   12.462551     -0.029596754    0              0.0075517449  -1.1606118    
      3730   12.213797     -0.028775438    0              0.0076315715  -1.1273215    
      3740   11.978252     -0.027986293    0              0.007718602   -1.0946424    
      3750   11.755217     -0.027227615    0              0.0078124538  -1.0625742    
      3760   11.544032     -0.026497803    0              0.0079127644  -1.0311136    
      3770   11.344081     -0.025795359    0              0.0080191907  -1.0002547    
      3780   11.154781     -0.025118876    0              0.0081314069  -0.96998943   
      3790   10.975587     -0.024467035    0              0.0082491044  -0.94030836   
      3800   10.805985     -0.0238386      0              0.00837199    -0.91120076   
      3810   10.645493     -0.023232406    0              0.0084997856  -0.88265501   
      3820   10.493655     -0.022647365    0              0.0086322269  -0.85465883   
      3830   10.350043     -0.02208245     0              0.0087690628  -0.82719952   
      3840   10.214254     -0.021536698    0              0.0089100544  -0.80026408   
      3850   10.085909     -0.021009203    0              0.0090549747  -0.7738394    
      3860   9.9646472     -0.020499113    0              0.0092036074  -0.74791233   
      3870   9.8501322     -0.020005626    0              0.0093557469  -0.72246978   
      3880   9.7420444     -0.019527987    0              0.009511197   -0.69749881   
      3890   9.6400823     -0.019065483    0              0.0096697711  -0.67298667   
      3900   9.5439612     -0.018617444    0              0.0098312909  -0.64892086   
      3910   9.4534117     -0.018183238    0              0.0099955868  -0.62528915   
      3920   9.3681794     -0.017762267    0              0.010162497   -0.60207961   
      3930   9.288023      -0.017353967    0              0.010331866   -0.57928064   
      3940   9.2127144     -0.016957805    0              0.010503546   -0.55688096   
      3950   9.1420374     -0.016573279    0              0.010677398   -0.53486965   
      3960   9.0757871     -0.016199913    0              0.010853285   -0.51323613   
      3970   9.0137691     -0.015837255    0              0.011031079   -0.49197016   
      3980   8.9557989     -0.015484879    0              0.011210656   -0.47106186   
      3990   8.9017016     -0.015142382    0              0.011391899   -0.45050168   
      4000   8.8513108     -0.014809381    0              0.011574696   -0.4302804    
      4010   8.8044684     -0.014485511    0              0.011758937   -0.41038917   
      4020   8.7610242     -0.01417043     0              0.01194452    -0.3908194    
      4030   8.7208353     -0.013863809    0              0.012131345   -0.37156286   
      4040   8.6837654     -0.013565337    0              0.012319318   -0.35261161   
      4050   8.6496851     -0.013274721    0              0.012508347   -0.33395799   
      4060   8.6184708     -0.012991678    0              0.012698347   -0.31559465   
      4070   8.5900049     -0.012715941    0              0.012889232   -0.29751448   
      4080   8.5641752     -0.012447257    0              0.013080923   -0.27971065   
      4090   8.5408745     -0.012185382    0              0.013273343   -0.26217661   
      4100   8.5200006     -0.011930085    0              0.013466418   -0.24490599   
      4110   8.5014558     -0.011681147    0              0.013660078   -0.22789272   
      4120   8.4851469     -0.011438357    0              0.013854254   -0.21113091   
      4130   8.4709846     -0.011201515    0              0.014048881   -0.19461489   
      4140   8.4588836     -0.010970429    0              0.014243897   -0.17833921   
      4150   8.4487623     -0.010744915    0              0.014439241   -0.16229861   
      4160   8.4405426     -0.010524799    0              0.014634855   -0.14648801   
      4170   8.4341495     -0.010309912    0              0.014830685   -0.13090251   
      4180   8.4295115     -0.010100096    0              0.015026677   -0.1155374    
      4190   8.4265598     -0.0098951949   0              0.015222779   -0.1003881    
      4200   8.4252284     -0.0096950628   0              0.015418943   -0.085450214  
      4210   8.4254542     -0.0094995583   0              0.01561512    -0.070719486  
      4220   8.4271764     -0.0093085458   0              0.015811266   -0.0561918    
      4230   8.4303368     -0.0091218955   0              0.016007337   -0.041863178  
      4240   8.4348795     -0.0089394824   0              0.016203291   -0.027729773  
      4250   8.4407506     -0.0087611868   0              0.016399088   -0.013787859  
      4260   8.4478986     -0.0085868933   0              0.016594688   -3.383042e-05 
      4270   8.4562736     -0.008416491    0              0.016790054    0.013535806  
      4280   8.4658279     -0.0082498732   0              0.016985152    0.026924437  
      4290   8.4765154     -0.0080869374   0              0.017179945    0.040135344  
      4300   8.488292      -0.0079275844   0              0.017374402    0.053171712  
      4310   8.5011148     -0.0077717191   0              0.017568489    0.066036631  
      4320   8.514943      -0.0076192495   0              0.017762178    0.078733101  
      4330   8.5297368     -0.0074700869   0              0.017955438    0.091264039  
      4340   8.5454582     -0.0073241458   0              0.018148242    0.10363228   
      4350   8.5620703     -0.0071813436   0              0.018340562    0.11584057   
      4360   8.5795376     -0.0070416006   0              0.018532371    0.12789159   
      4370   8.597826      -0.0069048396   0              0.018723647    0.13978795   
      4380   8.6169024     -0.0067709862   0              0.018914363    0.1515322    
      4390   8.6367348     -0.0066399682   0              0.019104498    0.16312679   
      4400   8.6572926     -0.006511716    0              0.019294029    0.17457415   
      4410   8.6785459     -0.0063861621   0              0.019482935    0.18587662   
      4420   8.7004661     -0.006263241    0              0.019671196    0.19703649   
      4430   8.7230254     -0.0061428895   0              0.019858792    0.208056     
      4440   8.7461969     -0.0060250463   0              0.020045705    0.21893732   
      4450   8.7699547     -0.0059096518   0              0.020231917    0.2296826    
      4460   8.7942738     -0.0057966484   0              0.020417411    0.24029391   
      4470   8.8191298     -0.0056859801   0              0.020602171    0.25077329   
      4480   8.8444994     -0.0055775927   0              0.02078618     0.26112272   
      4490   8.8703597     -0.0054714333   0              0.020969424    0.27134416   
      4500   8.8966889     -0.0053674509   0              0.021151889    0.28143949   
      4510   8.9234657     -0.0052655955   0              0.021333561    0.29141059   
      4520   8.9506695     -0.005165819    0              0.021514426    0.30125928   
      4530   8.9782803     -0.0050680744   0              0.021694474    0.31098734   
      4540   9.0062789     -0.0049723159   0              0.021873691    0.32059653   
      4550   9.0346467     -0.004878499    0              0.022052066    0.33008854   
      4560   9.0633654     -0.0047865807   0              0.02222959     0.33946507   
      4570   9.0924175     -0.0046965188   0              0.022406251    0.34872777   
      4580   9.1217862     -0.0046082723   0              0.02258204     0.35787823   
      4590   9.1514548     -0.0045218013   0              0.022756947    0.36691806   
      4600   9.1814075     -0.0044370671   0              0.022930965    0.3758488    
      4610   9.2116289     -0.0043540318   0              0.023104084    0.38467197   
      4620   9.2421039     -0.0042726584   0              0.023276298    0.39338909   
      4630   9.272818      -0.0041929111   0              0.023447598    0.4020016    
      4640   9.3037572     -0.0041147549   0              0.023617978    0.41051097   
      4650   9.3349078     -0.0040381555   0              0.023787431    0.41891861   
      4660   9.3662566     -0.0039630797   0              0.023955952    0.4272259    
      4670   9.3977908     -0.003889495    0              0.024123534    0.43543423   
      4680   9.429498      -0.0038173697   0              0.024290173    0.44354494   
      4690   9.4613661     -0.0037466727   0              0.024455862    0.45155934   
      4700   9.4933834     -0.003677374    0              0.024620599    0.45947874   
      4710   9.5255387     -0.0036094441   0              0.024784377    0.46730442   
      4720   9.5578209     -0.0035428541   0              0.024947194    0.47503764   
      4730   9.5902194     -0.003477576    0              0.025109046    0.48267963   
      4740   9.6227239     -0.0034135824   0              0.02526993     0.49023161   
      4750   9.6553245     -0.0033508464   0              0.025429842    0.49769478   
      4760   9.6880113     -0.0032893418   0              0.02558878     0.50507032   
      4770   9.7207751     -0.0032290431   0              0.025746741    0.51235938   
      4780   9.7536066     -0.0031699252   0              0.025903724    0.51956312   
      4790   9.7864972     -0.0031119638   0              0.026059725    0.52668264   
      4800   9.8194382     -0.0030551349   0              0.026214745    0.53371906   
      4810   9.8524213     -0.0029994152   0              0.026368781    0.54067347   
      4820   9.8854385     -0.0029447818   0              0.026521833    0.54754694   
      4830   9.918482      -0.0028912126   0              0.026673898    0.55434052   
      4840   9.9515443     -0.0028386855   0              0.026824978    0.56105526   
      4850   9.9846181     -0.0027871794   0              0.02697507     0.56769217   
      4860   10.017696     -0.0027366733   0              0.027124176    0.57425228   
      4870   10.050772     -0.0026871468   0              0.027272295    0.58073656   
      4880   10.083839     -0.00263858     0              0.027419427    0.58714601   
      4890   10.11689      -0.0025909533   0              0.027565573    0.59348158   
      4900   10.149919     -0.0025442477   0              0.027710733    0.59974423   
      4910   10.18292      -0.0024984443   0              0.027854907    0.60593489   
      4920   10.215888     -0.0024535249   0              0.027998098    0.61205449   
      4930   10.248817     -0.0024094717   0              0.028140305    0.61810392   
      4940   10.281701     -0.0023662671   0              0.028281531    0.6240841    
      4950   10.314535     -0.0023238939   0              0.028421776    0.6299959    
      4960   10.347314     -0.0022823354   0              0.028561043    0.63584019   
      4970   10.380033     -0.0022415751   0              0.028699332    0.64161783   
      4980   10.412688     -0.002201597    0              0.028836647    0.64732967   
      4990   10.445272     -0.0021623853   0              0.028972988    0.65297653   
      5000   10.477783     -0.0021239247   0              0.029108358    0.65855924   
Loop time of 0.0115199 on 1 procs for 5000 steps with 2 atoms

Performance: 3750.023 ns/day, 0.006 hours/ns, 434030.453 timesteps/s
57.9% CPU use with 1 MPI tasks x no OpenMP threads

MPI task timing breakdown:
Section |  min time  |  avg time  |  max time  |%varavg| %total
---------------------------------------------------------------
Pair    | 0.0010642  | 0.0010642  | 0.0010642  |   0.0 |  9.24
Neigh   | 3.718e-06  | 3.718e-06  | 3.718e-06  |   0.0 |  0.03
Comm    | 0.0021229  | 0.0021229  | 0.0021229  |   0.0 | 18.43
Output  | 0.0030422  | 0.0030422  | 0.0030422  |   0.0 | 26.41
Modify  | 0.0047765  | 0.0047765  | 0.0047765  |   0.0 | 41.46
Other   |            | 0.0005104  |            |       |  4.43

Nlocal:              2 ave           2 max           2 min
Histogram: 1 0 0 0 0 0 0 0 0 0
Nghost:            198 ave         198 max         198 min
Histogram: 1 0 0 0 0 0 0 0 0 0
Neighs:             41 ave          41 max          41 min
Histogram: 1 0 0 0 0 0 0 0 0 0

Total # of neighbors = 41
Ave neighs/atom = 20.5
Neighbor list builds = 1
Dangerous builds = 0
Total wall time: 0:00:00
