# LAMMPS data file 

25 atoms
1 atom types

-10.0 10.0 xlo xhi
-10.0 10.0 ylo yhi
-10.0 10.0 zlo zhi

Atoms

1 1 -5.657027733612585 -3.8087423612592453 5.733399973030322
2 1 9.175044841701542 9.498153439949839 5.458243511377708
3 1 -5.0222743027815 4.60265398210662 3.366941123132861
4 1 6.437783444878683 3.2564451816945734 -3.0265092976261805
5 1 -0.7873768250593312 -6.203388841846502 -2.0146310769811286
6 1 -3.6340109832298513 -7.933127083232114 -6.844220217520423
7 1 -0.5476521284197133 4.4449205749573295 -8.403312842929314
8 1 7.175416683418192 8.656873762372697 3.876140269747646
9 1 -3.249634934387564 -1.1004653942732112 7.0285418577954815
10 1 -9.299669148860213 1.4405742009079976 2.5181730627807433
11 1 -8.169154965090383 8.238957608729393 3.0934579952220798
12 1 -0.381114440857349 -1.9712354777713088 5.259025091114831
13 1 -4.9376433376031725 -2.5391107218603963 -0.814555973777118
14 1 7.812565874713865 -4.181255791784921 7.345065593472668
15 1 -6.212619504328895 -5.441807647248698 8.801699052204725
16 1 8.538319266743379 -1.5869332540609786 2.311082787360956
17 1 -6.579926347436462 4.259071442332427 -6.8086129436416325
18 1 -7.941777843659397 1.4166404527032341 -0.9233892650029336
19 1 9.462297064840111 -0.14568859484083063 3.719066697741642
20 1 -6.654564081615049 6.915045127049943 7.052003446188927
21 1 0.08172474865376245 -8.019270050055551 -3.0077386324210176
22 1 -6.174542324199372 7.226392866777591 4.222540836339057
23 1 4.096772538197564 1.7793870133774945 2.075800719004853
24 1 -0.5198813753991658 -4.381079324855213 5.51679360444494
25 1 3.173693867777123 8.613949602598797 3.601239654110806

Velocities

1 -0.0016186541550712327 0.00097655688677744 0.018287068283161075
2 -0.0011681060950257986 -0.009001994699276046 -0.0073220154848507475
3 -0.008354441717507072 -0.0015225672163194492 -0.007196656441578165
4 -0.007086228207630792 -0.00023190776462698936 0.011619522085216896
5 0.004750327125654249 -0.0004401169409937867 -0.009376403738542547
6 0.024164966719576395 -0.0063012858420793665 0.0012107669238861883
7 -0.0010824978356499038 -0.011785695849512355 0.0076313760624597896
8 0.002341772178912184 -0.006079916765990007 0.011764553205408389
9 -0.0027367521856356486 0.0013307890305826547 0.006924179266675271
10 -0.0010702105545390697 -0.0020526947484246555 0.006816985674033201
11 0.003902189482596202 -0.0024417847177567375 -0.01836924059032525
12 0.0004864428313689121 0.012054774116135654 0.0028270664616401224
13 -0.011257123594692536 -0.015032303493957523 0.0033016182397603
14 -0.00954357804663256 -0.0061553751888991015 0.00010298032670984512
15 -0.0073590196513851165 0.007272060146510617 0.0033372798488423634
16 0.015104853356077435 0.0080429981790658 -0.010516061068475411
17 0.007705524517950528 0.0032495806190738826 -0.005850236836509212
18 0.0015128036971185533 -0.0014332308389176781 -0.015624952091912735
19 0.012695404888169575 0.00057823383960079 0.012893644015811775
20 0.00010257847587344089 -0.003782776318080759 -0.005881833896502292
21 -0.003945736074279155 0.012092227783909958 -0.005739737130973888
22 -0.004707066966959965 -0.00309837675510264 0.00836796378914629
23 0.007301604507843886 -0.007836563534191565 -0.0050671893383056775
24 -0.009904650286750727 -0.0008299852952824008 0.014899133235977951
25 0.00036090868755952793 -0.01809426370108614 0.006980820961478742
