# LAMMPS data file 

30 atoms
1 atom types

-10.0 10.0 xlo xhi
-10.0 10.0 ylo yhi
-10.0 10.0 zlo zhi

Atoms

1 1 -6.7247042026331405 3.1147174810541287 -3.6356814716150048
2 1 -1.921665041901461 -5.520995119454135 -8.13177615442019
3 1 9.896686617292314 -5.612173661559532 -0.5879790701158445
4 1 -8.462774681936153 4.252847030151925 -4.691038641025795
5 1 2.8981440445801017 -4.193033073137274 0.4388779063959465
6 1 1.8019032252027891 3.088655791303566 3.3929952890983994
7 1 -7.0771396271135885 -1.0758548378457213 -5.895442927049011
8 1 9.659444625847009 -1.096380861727532 -6.256409569217814
9 1 1.2816896656665673 9.202401899484368 -1.7661544036164898
10 1 -3.9570579947237094 4.534486074564565 -3.0841149280404645
11 1 -7.131768636194968 -7.060337721229106 -1.6688342051483858
12 1 -8.162037542412195 8.974998523466155 1.2802961754120386
13 1 -0.6103455921509937 -5.128644883818456 -1.254468354514307
14 1 -1.124089779024775 0.7835318483595106 1.8566626663117898
15 1 5.276210523063661 -4.113542251306153 5.870842709004718
16 1 9.586450776594585 7.984479451183397 5.66070296429816
17 1 -7.821279704655799 -4.384176511362073 8.29223899336234
18 1 -7.081328907081598 8.708389163032656 4.725954854267915
19 1 7.577976287815986 6.9236464033945175 5.71090818340889
20 1 -4.416907292921486 -8.048610615515038 -7.607337283287112
21 1 1.464461593245531 -4.4102519751252895 -1.9511024468187887
22 1 0.8901137566273114 4.9607892053155815 -5.566224089231229
23 1 4.032248241644007 6.8706321610462275 7.7651298248126785
24 1 -0.5396291746574136 -4.9760679844324285 5.4201851522002915
25 1 -9.374870705826122 -5.293392317287995 9.849808583764275
26 1 8.307957759952188 -5.529221420190891 -3.2181467587280306
27 1 1.596317448120704 -0.4456317895279156 7.262563539671703
28 1 1.0765920075920086 -1.2395013859226385 3.896448751161204
29 1 5.720670855066922 2.434733044543524 9.284214638666612
30 1 -6.5301817294471505 2.23862937838682 1.7508382423242956

Velocities

1 0.002976101367230486 -0.03461524318952307 -0.024573477405932322
2 -0.005522807747019139 -0.0023597616786997155 0.012053153406772495
3 0.004124067491741598 0.0011135828997583367 -0.03619721015642733
4 0.01625118432785417 -0.019633174960616465 -0.010536355972906378
5 -0.0009178740317329239 -0.006877374739491432 0.006839097199801461
6 0.029649094812840133 -0.01329502518755897 0.01890808203764961
7 -0.0025118221469905386 -0.016293281565750866 -0.002081340773692269
8 -0.008544579793792112 -0.01886523923487917 -0.017907950914062443
9 0.011751771619018568 0.009059381671899146 0.02864364603412535
10 0.007288828008632766 -0.013489519468633904 0.005822610200832485
11 -0.006485560560495478 -0.016776887975416026 0.015382776534577565
12 -0.021007040634253852 -0.015034240881876685 0.007333497501398042
13 0.023993637755939764 0.032355164030631774 -0.006062625732211086
14 -0.022501327833529792 0.0171056594215495 -0.010370339216573451
15 -0.0008384753295775108 -0.021451568857854104 0.008464656346718388
16 0.010298793266012102 -0.022853879398154146 0.013493236489714714
17 -0.0006969142956941902 0.02105305459071982 -0.017199770744315685
18 -0.007357620137775234 -0.016236987973411138 -0.011120383247103812
19 0.0026078469640692494 -0.023074345915391554 0.0036746336501263946
20 0.007904238489389518 0.03157954781637732 0.004107006913535546
21 -0.0014523152801761657 -0.02380856016219473 -0.01686087892167425
22 -0.0019761538644872453 -0.020083040201507942 0.0030783612179035333
23 0.0051728850387732905 -0.004834302474769809 0.010236718406828669
24 -0.013244994620498387 0.027539709396748407 -0.022954996332943577
25 -0.011577322187429158 0.005188492681541459 0.016099216371112893
26 -0.0022764799102422554 0.007486356338646804 0.0026003828110820956
27 0.0014355484416506137 -0.011096405932931562 -0.010669314298389413
28 -0.01023597659417967 -0.01965316170412339 -0.008547594935390068
29 -0.014323058186485368 0.031737349771215964 -0.004650324714265163
30 0.015305122666900123 -0.010054360739511192 -0.005405054103157874
