# LAMMPS data file 

100 atoms
1 atom types

-10.0 10.0 xlo xhi
-10.0 10.0 ylo yhi
-10.0 10.0 zlo zhi

Atoms

1 1 -2.7580303982476124 -3.943900444146643 -9.338311250369967
2 1 2.5470381201676773 -7.144479211069822 8.515069986821874
3 1 -4.015129820027715 -3.082750271790649 -9.001949459353925
4 1 6.120887498841662 -9.201416545504323 -5.195935183984866
5 1 -8.995733679819269 -8.531558912235742 -0.31764814165298466
6 1 8.006707660555753 1.1175212568543214 -0.16018124532030462
7 1 -3.337772681914333 0.23802251353901407 2.2584039664317173
8 1 2.4154477836321764 -5.182887514364294 -6.695887078981515
9 1 -0.10260510656242319 3.983757181149652 -8.294827539332344
10 1 -8.024675656696672 9.848502264338498 0.6843997070072406
11 1 0.2619936666647583 4.133712603081006 -6.2863815405685255
12 1 4.651581983073632 5.244797623710336 -0.5995651140601216
13 1 3.30492092286077 -3.0015288048276836 5.458615588665022
14 1 -1.6049316583334818 6.381832293112934 8.67587581058598
15 1 5.186879985928102 -8.076023845238224 -7.944731847539377
16 1 6.369939102179116 8.720143738209726 -8.793561278958146
17 1 9.36766032614321 -7.71592776517028 -7.096502156376787
18 1 7.891114923264686 -8.659164611206618 -9.722096251396598
19 1 -7.071176284571773 -6.884300045685268 2.8660389012202936
20 1 2.248086959676719 -3.9418953106359664 8.55668961595323
21 1 -3.4350483596411623 0.27912691939326945 -4.363564235083919
22 1 2.3465565460579727 -7.163178796104302 -9.607249434709288
23 1 0.08557537452988555 7.196047085410255 8.727355523824881
24 1 -2.166149214501116 0.5371009371156219 7.028400308071081
25 1 7.082374173386525 9.667740768266995 6.697035152593243
26 1 -6.565882445196693 -8.007371935886226 -4.6955682353185
27 1 -4.393613393102072 -7.3704746455887715 -3.6994630210490547
28 1 -0.7382045400890694 0.01139177728716484 -0.47696176876279794
29 1 6.63318420544328 4.230334073321911 -8.509830418243256
30 1 -4.209615825135528 4.318756417477981 -7.399027240540574
31 1 -0.23410812805316777 -1.333900098511471 -4.853555956066302
32 1 9.469974821654088 0.08580178183877779 -6.841721964854917
33 1 -2.046241002301907 5.651420112323736 3.5097123519047106
34 1 3.97664124792005 -9.117302724574849 -8.710408663842378
35 1 -3.9024657636882734 7.039425214520374 2.383778088392905
36 1 -0.5887668711918717 -7.684376804392671 -4.923973631552926
37 1 -9.996682855435354 7.568011239920445 5.985153638172303
38 1 -4.159518690426928 -3.85132404854628 1.1641515472059187
39 1 -7.105352797625171 -6.370741732601331 -8.82641105523054
40 1 -8.947447477236889 -8.461600047364584 6.015954792716419
41 1 -7.097661934895554 8.574271069933413 -4.014303344676882
42 1 -9.12368067475035 -6.028068606880257 -2.942525404373292
43 1 -0.4815928191140599 -7.1397981300818385 4.940191695130206
44 1 -7.252947301000045 -4.268080061990862 3.8314183164036537
45 1 1.3486359188154124 5.259036834626191 0.9322873823817395
46 1 -4.444668224146212 -6.038901526080059 2.3925391141270214
47 1 -6.528623803850797 -4.494738086653057 7.5195433547193895
48 1 0.4360042528363523 -8.535772421818887 1.462136869399076
49 1 9.177542748573327 2.434714384024749 3.0334333980978783
50 1 -0.9747130190034448 -9.631711250082738 7.155032427695967
51 1 4.657808336977561 3.5734489459976864 -4.537550883921137
52 1 -9.660574444069756 3.5246113368312133 3.160507906600365
53 1 -4.485806640056312 -1.7094157714282705 7.547335512371302
54 1 -1.6847510129168721 -8.48887653050287 -8.36673130762233
55 1 6.736488068958216 -4.150329152983289 8.450336118883836
56 1 -6.898238544983809 -3.5433395871584072 4.812920192336903
57 1 -3.059356133967134 -6.468593017898037 2.074536160180897
58 1 3.5557947543153405 7.63861641679376 1.62147756159136
59 1 6.372294375029805 2.866461609836952 -8.50294244197239
60 1 2.33160291927313 2.312495742140775 -8.694744070328774
61 1 -1.4001514009700544 7.513718320356729 -7.5697955454357295
62 1 -1.4481765723723934 -1.7220198721577487 5.1459554309237046
63 1 2.249497497807481 0.2228954504865795 8.819308646029015
64 1 7.18564003218015 0.3882489682835668 -9.156938577524881
65 1 -0.6940912856555919 -9.56668071932492 5.514016853147249
66 1 0.3312752405935833 -5.376581102100431 3.7929739218529086
67 1 -9.506596456123159 -2.836776927567974 -5.301152804665093
68 1 -3.0476389922309526 -5.066266380353473 6.424825976780613
69 1 -9.83350141361011 -9.233658800323338 -3.240493610741772
70 1 -4.135238665260233 -8.877067877515476 6.210887377321724
71 1 -3.660824466816771 -2.7074083918569185 0.42412794660207553
72 1 -9.399797347526857 -3.9530166908102906 4.3993023525304595
73 1 -2.605853215466601 0.20029874846156645 5.3036288088196075
74 1 9.833295029982615 7.212352391112265 -0.8780432783489993
75 1 7.920186404987944 9.16094465817025 -1.4007632103598144
76 1 9.111570417100193 -0.8865935385642321 -7.230479704912201
77 1 -8.449796168607305 -0.5800116650911284 9.41971936706458
78 1 -8.720514427373056 -6.255158551404693 1.9636924309400121
79 1 -6.255296169999891 0.20984347949685214 -6.3728019554005355
80 1 1.0637527267955944 2.9006605155339855 0.1434697395371312
81 1 -4.7607936670021 -8.820664434432672 0.3153260411644863
82 1 7.984132511249993 -4.762061276899223 -2.3635144349044226
83 1 -7.2044658377407 -5.561990745140805 -5.624139960831783
84 1 8.616510988789171 -9.964323846823326 3.170577906830226
85 1 4.581910670143416 -7.0431422693759425 8.827629629128767
86 1 2.368004759628169 4.485966075835631 -4.195872084687854
87 1 -0.47610248892436613 3.0482812496611174 -7.577477985054135
88 1 9.302860052210105 8.794683369084154 3.8031478286110736
89 1 7.873373575639623 -3.295387743221296 -7.87360491181033
90 1 1.5145913603226069 -7.521793594855718 8.653310724792387
91 1 -2.406098151036653 2.887140115103152 -6.576336194870922
92 1 6.307333672574114 8.761881362117123 8.88883392467561
93 1 -5.345651556951717 3.997442922230136 -5.815283605568075
94 1 -4.555693670071345 -5.592004984113199 9.57622072517308
95 1 -0.9177448459281676 -4.566086144198229 8.988435869259334
96 1 -2.0273177328077203 -5.922665868942129 -8.964635159943976
97 1 1.1108992798226196 -5.6940602939267615 -5.703722241366125
98 1 3.2840786503374098 -2.7273555185839986 -6.803986836412334
99 1 -0.19050792839731898 -6.436003982458325 2.590897835980366
100 1 -0.31078134605153157 5.43415501369194 -7.250306363965584

Velocities

1 -0.0010251510038204149 0.006784953310678733 -0.0106441810111484
2 -0.004681348609170449 -0.011916647023191755 0.013454064267497519
3 -0.0022982774821099453 0.019464730299569636 0.0032791313986721723
4 0.00752883929362288 0.004729834233319875 0.001506140815199066
5 0.008497916534569834 -0.005421162410636828 0.006479820353726361
6 -0.017703802967845916 -0.002634503059362455 0.007794181878899868
7 -0.01735690153769967 -0.006077562717331739 -0.0021207465555357426
8 -0.002644095117448365 -0.0074281382072463745 0.01867499804705827
9 -0.009214566772954293 0.005435105752709885 -0.005132601997504859
10 -0.005374677773635448 0.0006669324177190477 -0.009053895057570153
11 -0.01051372408559661 0.002164447021236784 -0.008227208032489901
12 0.0023537877699628326 -6.640278576628669e-05 0.00401548749060021
13 -0.014232824469576666 0.01769733619512937 -0.018396229443591476
14 -0.006751176991624443 0.00554638647429178 -0.011783077610112604
15 -0.0023288154894907107 -0.008118276230573245 0.0036130018325481027
16 -0.00974002119846895 -0.024518811425330005 -0.016974473250367546
17 0.011763606020957528 0.011814129085786218 0.00029545900422627176
18 0.0032766841361411055 -0.0068068721014164345 0.014532678254709672
19 -0.011957627517620842 0.008750566073737599 0.0028016000602994057
20 0.009644670634631073 -0.0005690062985757497 0.006119456066655368
21 0.007723768974069376 0.003415008916668234 -7.165216080913094e-05
22 0.003772833536864616 -0.006355325648399299 0.0072169204997270964
23 -0.008179272827275012 0.0020136261173634516 -0.00866038641658759
24 -0.0035759086566190855 -0.00019241293845068282 0.012693720434426077
25 0.003487870283881318 0.011847978240797594 -0.0035746712424330283
26 0.0024277351004321004 0.002693481438354214 -0.018647636200295276
27 -0.01052328324194932 -0.011470218652751305 0.0017571401233060602
28 0.013205424800481185 0.008351682921771774 0.0040376492609267576
29 0.0010545528817992556 0.002660518120454965 -0.003751926246505627
30 -0.004271222409415667 0.006149418376812867 0.005914226529986536
31 -0.006153412991197869 -0.007606373521063354 0.009929816893835658
32 -0.00039118765055825417 -0.00929670813963693 0.00824851532611096
33 0.00011909365830025211 0.0022584113636763365 0.007389715981992296
34 0.004710776692583586 0.011066624206489479 0.0031835367995688073
35 0.006175402587688683 0.004611128304934492 -0.006453787737095024
36 -0.006080262633211597 0.014368714425399748 0.0003996397045249559
37 -0.01152832320592805 0.0038307553342860636 0.0006884945522608066
38 0.00289355611161931 -0.0053600451402881395 0.00040681714892821223
39 0.0015229518407051403 -0.014716066651610618 -0.0008844623470350378
40 -0.0037761564831953797 -0.0029393003324455387 0.009354724481784664
41 0.012248480675570338 -0.0009470051348233821 -0.005081644512405717
42 0.013615120887251989 0.004260592638324877 0.004633708582693174
43 0.018399637519924898 -0.007058791477515859 0.012757583982411188
44 0.006149808964775052 -0.003909206997049033 0.013996300119724185
45 0.015598327930240267 0.0035349321804226284 -0.0013745638280178182
46 -0.0004644646073560053 0.0028592747068949893 0.011425223801243854
47 -0.027708246688987827 0.02433113699363814 0.021033416603615088
48 0.0066778454013882195 4.316269026820104e-05 -0.006152207174351089
49 -0.0002580693722928539 -0.0029038249905482495 0.0068518047578123385
50 0.00537206113307498 -0.012172201334737289 0.011967557767985032
51 -0.00105521649614981 -0.0012202550178145083 0.004029457030295121
52 -0.00498049953955491 -0.014635107946494504 0.01506969738168848
53 0.0014495096268500104 -0.0052061835635749424 0.0005469183583862457
54 0.0080706961796156 -0.005467186659214237 -0.0021228399474068466
55 -0.0012474904130520916 0.015069877049536117 -0.0055759222932425445
56 0.0008122155037123053 -0.004260632504187095 0.0002256611319809088
57 -0.01398232810108911 -0.015007375485977172 0.002259019878420048
58 0.007332181119394655 0.0020055994832962596 0.017311099782835564
59 -0.012049814059500554 -0.003106603087022513 0.0003648234130533008
60 -0.003330346771599194 0.0003624399390926109 0.0052318339619415
61 -0.003695442605410665 -0.015491025011203235 0.010919505169000733
62 0.005703415484636902 0.015104642540191546 -0.013979830551759005
63 0.0222814134132209 -0.0030027641399996987 -0.0006004755307167518
64 -0.003955520219876665 0.025843387773456305 -0.0030904320653821612
65 0.002427897725870056 -0.0066823635406667425 -0.0007276862670101722
66 0.008430504711586774 -0.010446987301331506 0.00837339222592246
67 -0.008783848476263671 0.0026867521063642973 0.003846753080293606
68 -0.011082657746742644 -0.00012136746975313182 0.001041992935560868
69 0.002413476144122943 0.004680648907864286 -0.0067326268695197785
70 0.009602271220113891 -0.0016248125572743374 -0.00967101365917153
71 0.0026498942507632334 -0.008347205329324056 0.007198852057760008
72 -0.003170475215653867 6.560800256438145e-05 -0.00606543505244711
73 -0.012879008684910714 0.02139017603460654 -0.011284919993503903
74 -0.003779012575450536 0.0011176823321463734 0.011159394263888877
75 0.006304134611388271 0.0092679211518288 -0.010720954029999872
76 0.011007388958095441 0.0017089637845951707 0.00951617361873992
77 -0.004428945291867534 0.0010758397425013437 -0.001047749438535511
78 -0.0032395466847993178 0.016866748681861245 -0.004007796911955555
79 0.003967808115932151 0.013213047005617509 -0.014191520370637896
80 -0.01017161783918826 0.0011436790857293827 -0.010642213699018948
81 0.0023771049751031836 -0.006225975507973655 0.009105446267732072
82 0.0005270770822448175 0.019137394799050578 -4.5612675783611595e-05
83 0.01751769413559834 0.015776766422385912 0.006524866009899071
84 0.012898330736938765 0.010918784226012841 0.0019522692549112546
85 -0.008110695209439679 -0.0004814175018094911 -0.01901908482114886
86 0.005617641069213111 -0.006967130132842384 -0.006295310925366442
87 -0.009902006566809415 -0.009192588376397992 -0.00906970943287895
88 -0.004236228993197335 -0.009371934289360973 -0.00014275793292111078
89 -0.01953387104566425 0.00017643088826212327 0.00023849015064422157
90 0.0024321315573963107 -0.0014643482848996272 0.0017639919319458798
91 0.00958516901329015 -0.0045271657370099146 0.0064258278411223925
92 -0.0101778846919124 0.010268497435384747 0.013863712609407278
93 0.014268701530654666 -0.00083253653587843 -0.02504839707148289
94 0.0006202766367343043 -0.0058388545352111515 -0.0015125617710719133
95 -0.006430618508253759 0.012331089395513374 -0.0018688214957999988
96 0.006750898435017722 0.013156167862491403 0.018393675051314867
97 0.01214258885838178 0.02401926456110932 -0.002704349765284008
98 -0.0018148804157574988 0.009757829761746148 0.00022440649062230184
99 0.012856596682938072 0.003949040110803101 -0.02563543966274341
100 -0.006861901941159528 -0.027540497894089692 -0.005559027573755183
