# LAMMPS data file 

10 atoms
1 atom types

-10.0 10.0 xlo xhi
-10.0 10.0 ylo yhi
-10.0 10.0 zlo zhi

Atoms

1 1 -2.830522712014333 1.0490321146050292 -4.042033038753498
2 1 2.7965081751076433 4.408606996600282 1.8425207473708376
3 1 -3.4483037835703536 4.707375166219171 0.886897780380541
4 1 5.285863934416329 -1.0735207942710394 -1.7501083433201245
5 1 -9.836585807252868 5.392592502849246 6.489896113984537
6 1 9.604467078457139 7.3374477471279365 -6.906061081097053
7 1 -1.6203519703267786 8.170787039859109 -3.2557610556524916
8 1 2.6594778537073953 7.433645378303555 -2.0520761061865858
9 1 0.8390565993580674 -5.920663245161009 6.3013395664613885
10 1 -7.522297176292323 1.3049902335568688 -4.028893012595029

Velocities

1 0.004493886202594207 -0.01672593825222326 0.0162116301786941
2 0.00018043517094435354 -0.0007795795651651413 -0.010128186503141257
3 0.01489322322050805 -0.0010912075259830443 0.0027717633564802234
4 -0.008716189558900748 -0.01793810707015264 0.007954764906449169
5 0.00013417182654036543 -0.000819951993269423 -0.019817593138895747
6 -0.016270754267904298 0.004457263039666643 -0.010028804864649622
7 -0.0008871884472662579 -0.006927504853107294 0.009513512537517888
8 -0.0017894892173880685 -0.012885798520607351 4.2619779355952624e-05
9 -0.006868069159704971 -0.0016785644623358881 -0.016885318360535844
10 -0.0028598627256803274 0.0016330692836216687 -0.02245048947065297
