# LAMMPS data file 

20 atoms
1 atom types

-10.0 10.0 xlo xhi
-10.0 10.0 ylo yhi
-10.0 10.0 zlo zhi

Atoms

1 1 5.410219843428321 -4.777923261698156 -8.538135237508495
2 1 0.39617959028513106 7.971833020329214 -2.5322639897954176
3 1 -4.462985996133577 -4.0565024603572475 -2.9291512558581756
4 1 -8.379250494073364 8.117544040834574 -3.6856907876156235
5 1 -0.20824305306746638 4.165911643551928 5.247998410189288
6 1 -3.1147693426071505 -9.249777092951522 9.483878921393114
7 1 3.0237984581448316 1.9080542894356967 -7.434911126533117
8 1 -3.2844534802376923 -0.24585585422173395 -2.506544759126381
9 1 -0.41471698120671263 -7.327583680504006 -7.578159187330639
10 1 -2.0627233526120587 4.303210255734795 2.295053299966609
11 1 4.050239599043133 1.9247156837175048 2.3691714031400295
12 1 -4.450293849215335 -6.092394003236503 -8.138515256376209
13 1 -5.001151039178467 9.307643254734106 5.962168659061211
14 1 -4.211257886434467 9.714868403598494 8.42833963836869
15 1 -1.203999715523281 -8.846812497922713 2.1882301110084583
16 1 -6.8998010678749395 -1.7844399424558954 4.511829779877408
17 1 -4.020236380459144 -8.364378832791635 -0.38844720262804167
18 1 5.880922830809666 -6.94730445234897 -6.222519882899471
19 1 -6.652747564804042 -8.049989309311247 -8.579991061640307
20 1 2.193540292466709 4.262718724848893 -7.006322530254023

Velocities

1 0.012525117314209973 0.011848151231707202 0.006017168026001135
2 -0.0031509129915674922 0.006635284599693424 -0.017305783467682027
3 -0.018254004711308315 -0.0016596848279236175 -0.007650461748262427
4 0.0007198053393155732 -0.004622573130702785 0.002477913273440634
5 0.001267793405498738 0.001787054831022623 -0.0020869417817908757
6 -0.013613634316959602 0.017061102981813382 -0.002215734510293858
7 0.01308475121580329 -0.002329648273705604 0.002866921764915314
8 -0.007653133969341809 -0.005244273422481824 0.00070073655892087
9 -0.002237802765062253 0.00030675835082095125 -0.004608414911536252
10 -0.012587967594361864 -0.0010394561368989416 0.0020423864797996802
11 -0.017786283676149043 -0.007632438299248904 -0.013000755408213643
12 0.0030856019467072953 0.008154536291148224 -0.007318270220466209
13 0.005657216754344043 0.017750345518964004 -0.0006667626855013246
14 0.011070180443980785 -0.00480882584517888 0.00011591082451338496
15 0.006903479672670679 0.012926144401973278 -0.0031766172937667593
16 0.006567145625433385 0.0010155601296274047 0.007087669329332693
17 -0.001805033599783124 0.0003465830383607457 -0.006567284269858316
18 0.009767020008330561 -0.005012384316054599 -0.008415135266516398
19 0.007868249415109028 0.0013250422012621524 -0.007139433489523798
20 0.001880460571928964 -0.01664182630977904 -0.0018035725712930526
