# LAMMPS data file 

10 atoms
1 atom types

-10.0 10.0 xlo xhi
-10.0 10.0 ylo yhi
-10.0 10.0 zlo zhi

Atoms

1 1 -2.875462581111976 1.21629168402648 -4.204149171615727
2 1 2.7947036988303626 4.416403166794783 1.9438020232898001
3 1 -3.5972358105083675 4.718287290195342 0.8591798286501895
4 1 5.373025818028054 -0.8941396547345839 -1.8296559722729189
5 1 -9.83792752980704 5.400792039742829 6.688072095386751
6 1 9.767174638797684 7.292875058826283 -6.805773068471157
7 1 -1.6114789244583214 8.240061662861272 -3.350895635132332
8 1 2.6773714894245195 7.562503130382002 -2.0525021391749902
9 1 0.9077372909551169 -5.903877600537653 6.470192750066744
10 1 -7.493697528997538 1.288659561327954 -3.8043881243400595

Velocities

1 0.004494091155952132 -0.01672597437358638 0.016211593389825956
2 0.00018045903310347583 -0.000779651688631696 -0.010128072509330028
3 0.014893183507509865 -0.0010912163534577326 0.002771826175720255
4 -0.008716187340126158 -0.017938120820897845 0.007954760825471257
5 0.00013417265684827263 -0.0008199554658174822 -0.019817603437620453
6 -0.016270757987278953 0.004457274857988345 -0.010028797466027337
7 -0.0008874190479471987 -0.006927421427055997 0.009513404097170214
8 -0.001789239699289123 -0.012885753823070998 4.259102980541131e-05
9 -0.006868069159704971 -0.0016785644623358881 -0.016885318360535844
10 -0.0028600700753250298 0.0016330636373099367 -0.022450485323857537
