# LAMMPS data file 

100 atoms
1 atom types

-10.0 10.0 xlo xhi
-10.0 10.0 ylo yhi
-10.0 10.0 zlo zhi

Atoms

1 1 -2.875462581111976 -4.54245008630709 -8.29466041512756
2 1 2.7947036988303626 -6.072422974191598 7.284892362751055
3 1 -3.5972358105083675 -5.139855824892939 -9.361885198334392
4 1 5.373025818028054 -9.671221294502551 -5.3485499391149816
5 1 -9.83792752980704 -7.998337196931075 -0.9617867182918793
6 1 9.767174638797684 1.3798289709664413 -0.9345087218630326
7 1 -1.6114789244583214 0.8413990562089761 2.4694625826657024
8 1 2.6773714894245195 -4.430888510098166 -8.53450717540878
9 1 0.9077372909551169 3.617380123620215 -7.950057984722632
10 1 -7.493697528997538 9.788712932802149 1.5814106526089944
11 1 1.21629168402648 3.863920840354023 -5.621689910754261
12 1 4.416403166794783 5.252360864749971 -0.9982292110294004
13 1 4.718287290195342 -4.762503437784269 7.289919783537183
14 1 -0.8941396547345839 5.851300243042575 9.84774863293029
15 1 5.400792039742829 -7.279666189589831 -8.337548656386218
16 1 7.292875058826283 -8.835057863114928 -7.107338159254343
17 1 8.240061662861272 -8.893717343806397 -7.127639588444894
18 1 7.562503130382002 -7.982813961169617 8.835015995642696
19 1 -5.903877600537653 -7.74489803376359 2.575589193528799
20 1 1.288659561327954 -3.8900109814154327 7.947825168590288
21 1 -4.204149171615727 -0.06045098177800767 -4.357528032482845
22 1 1.9438020232898001 -6.559662807176223 9.565696790213178
23 1 0.8591798286501895 6.9753369351483805 9.59021821072253
24 1 -1.8296559722729189 0.39403504654888266 5.627849332282686
25 1 6.688072095386751 8.515293816854665 7.067770658298269
26 1 -6.805773068471157 -8.272274986153146 -2.8412825392475582
27 1 -3.350895635132332 -6.231419490765235 -3.875174028048816
28 1 -2.0525021391749902 -0.8194410172775086 -0.8774840485197384
29 1 6.470192750066744 3.968086928774861 -8.116696013698661
30 1 -3.8043881243400595 3.721282675906858 -8.043764347066578
31 1 0.37754654915130814 -0.57743130942508 -5.8409885837251885
32 1 9.402292466724194 0.7974590678012756 -7.736333698490883
33 1 -2.0631365627150178 5.430359744192327 2.7725902648370067
34 1 3.5252421994320233 9.800846694075265 -9.018898305706408
35 1 -4.510832393519459 6.577426988741962 3.0273477146908334
36 1 0.037197429112334035 -9.0564707455042 -4.98844128661535
37 1 -8.851840315232922 7.189341067667556 5.914049121816152
38 1 -4.390295893974178 -3.189101034076895 1.0246289590037687
39 1 -7.255195206668457 -4.907037461602329 -8.73784281488341
40 1 -8.572035275176448 -8.169573179940965 5.084517657986753
41 1 -8.316875507182338 8.670120970344833 -3.508139988872232
42 1 9.51657129243221 -6.4524841849079495 -3.400933879839771
43 1 -3.2548998450989757 -6.857148645711238 4.7835810669757794
44 1 -7.8161991333419545 -3.7793263177484775 2.616370714233014
45 1 -0.2004123661542181 4.8997560687575366 1.0674174893860062
46 1 -4.299473918062391 -6.330984282191667 1.244598736379281
47 1 -3.779676369705262 -6.914553125192064 5.4397684336561785
48 1 -0.22992623957550684 -8.535687457211985 2.07757078619035
49 1 9.24595281908643 2.7675334484961045 2.3513053986149384
50 1 -1.7008754883296682 -8.302462908292389 6.29839348044743
51 1 4.758925543764814 3.696423052378341 -4.937672814025202
52 1 -9.208264371642533 4.935613128437987 1.6622522510395399
53 1 -4.627849639876378 -1.1919704185471947 7.491771230797024
54 1 -2.4879463938751956 -7.937104099529588 -8.161137996369849
55 1 6.859203821749379 -5.650478039216593 9.005622824647162
56 1 -7.050316663760155 -3.2251223672251372 4.622199472034914
57 1 -1.7660400436833044 -4.965614603270236 1.8671908642398591
58 1 2.826828409055109 7.437500067971595 -0.10068309910001183
59 1 7.628733900244853 3.1711841484459242 -8.559116480194595
60 1 2.6582225130634836 2.2784718082500746 -9.21376122525303
61 1 -1.0244656851020082 9.042369434673795 -8.650875248487866
62 1 -2.02441566414882 -3.13461764883602 6.541087525900732
63 1 0.03410284151581777 0.5220931879010315 8.879884997441174
64 1 7.617428216316636 -2.1655911386666515 -8.80583833841516
65 1 -0.7450071996817016 -9.012758332611174 5.249824155600354
66 1 -0.5603301472573836 -4.452424966080406 2.930971667793262
67 1 -8.633979246491561 -3.1038291429895093 -5.685233240612055
68 1 -1.9460437345061 -5.053105643815443 6.319989650183754
69 1 9.9286344274057 -9.697128104081694 -2.5673369451988854
70 1 -5.088444708199833 -8.713991554105288 7.172035167374922
71 1 -3.9795220587329094 -2.013067469496752 -0.1891648974479665
72 1 -9.059520817480012 -3.9590529295567993 4.994084165621619
73 1 -1.299959685911599 -1.8591307247651478 6.559807088502257
74 1 -9.792968421932017 7.1041785363270975 -1.9878498709245225
75 1 7.2965748128897125 8.237949883921111 -0.3349730363430048
76 1 8.085660338785623 -0.8676797277497386 -8.146039997599441
77 1 -8.009578867691696 -0.6871383614480404 9.524263522566251
78 1 -8.371440778534446 -7.938584650522753 2.3723371691959834
79 1 -6.648667107688273 -1.1037980107582879 -4.9610378331085485
80 1 2.073359973333673 2.7953656250084276 1.2033884216670678
81 1 -4.997861786155124 -8.200043311906347 -0.5884916941478302
82 1 7.939129307401785 -6.6665116624278475 -2.361896198398032
83 1 -8.94605039606678 -7.132501188451064 -6.271952509421316
84 1 7.474960446179434 8.85772995390387 3.0629996681157294
85 1 5.378421623903087 -7.002907922136825 -9.25944729115865
86 1 1.8101441641670917 5.175625533607445 -3.5749761026093285
87 1 0.4949084352031736 3.8735435130977454 -6.354626523731389
88 1 9.584870428834119 9.817665855498309 3.733764004335127
89 1 9.816297071958925 -3.304202618245826 -7.896103656271531
90 1 1.5316145879040182 -7.23026064586816 8.484210333327106
91 1 -3.3339092928187934 3.3240542218230296 -7.155346943638339
92 1 7.367771790534231 7.716446601305954 7.497789116594117
93 1 -6.759815141270984 4.080629130063793 -3.3306368275241205
94 1 -4.5782488509509545 -4.983783492830436 9.770917989022529
95 1 -0.2818659609186689 -5.795902297752466 9.17845974721098
96 1 -2.701269812588894 -7.218250225214877 9.208206671798472
97 1 -0.10669295023725667 -8.132799577392744 -5.420631884530438
98 1 3.453622902362337 -3.7184653204004388 -6.836724041792149
99 1 -0.4709136242819323 -6.30241943214362 4.042575242863915
100 1 0.371314470138417 8.150687875756407 -6.700964812883409

Velocities

1 0.002870823432644375 0.006381221602625743 -0.009025104455773338
2 -0.0015576119995253707 -0.010138946642480001 0.011615686793027349
3 -0.004347247937561653 0.02060199887960416 0.003905252681726839
4 0.007412536475189565 0.004663291575145989 0.0015575202599244166
5 0.008379897424810868 -0.005256271458405934 0.006469076207586957
6 -0.017505930241925777 -0.0026121340753671343 0.007692737960229124
7 -0.017167258431610363 -0.0059932387417931336 -0.0020993592054033556
8 -0.002774243619549938 -0.007725681258030043 0.01802339046138851
9 -0.009917433205177167 0.003021437839586707 -0.004551711097575373
10 -0.005266925439548471 0.0005483378060892576 -0.008922296690261086
11 -0.011199525760343741 0.003146514373766781 -0.007970181042788738
12 0.002354576632015939 -9.172836954196012e-05 0.003957264680976093
13 -0.014010083657466603 0.01755048764029543 -0.01823787014618349
14 -0.007368544054762988 0.005099074067899663 -0.011641580758913847
15 -0.002138815916240427 -0.007031333290385336 0.0011765297689304447
16 0.008501717009913713 -0.02373130362480632 -0.016348530359120726
17 -0.006408128244323482 0.011094055798500474 -0.00011089957855499029
18 0.003303023953710207 -0.006750976524019 0.01432565387093285
19 -0.011489230176985606 0.008509895825269011 0.002964762373956631
20 0.009542667906848401 -0.00044501206930263085 0.006049589070020124
21 0.0076724820709896955 0.003383617187017175 -4.918613610673193e-05
22 0.004688896496081436 -0.0051833847725412125 0.01007320054634862
23 -0.007388724382082386 0.002363403331693884 -0.008616541532679683
24 -0.003353644930066302 0.002683416839524089 0.014442157075193467
25 0.007360711492900825 0.00648120333843327 -0.0001377691638148488
26 0.002388135330856583 0.002629898909850175 -0.01844323066728881
27 -0.010357540717423626 -0.011318888956716632 0.0017482024614413286
28 0.013105675951755148 0.008282733210481608 0.00396419895971565
29 0.0006616660171521574 0.0025874029388388976 -0.003586243349550025
30 0.0025091044655149875 0.0004917044107874381 0.01666058558831827
31 -0.006081542008297471 -0.007523761190590123 0.00981992690089955
32 0.0011884903288440335 -0.006222686833631715 0.009167782964147338
33 0.00020394130014335957 0.002172974031635388 0.007351605730319651
34 0.004446124276596206 0.010701059963279419 0.0030537328771848534
35 0.005995522464639739 0.00462288119939337 -0.006405321748303342
36 -0.006770393233214894 0.013525411372012961 0.0006600087938220979
37 -0.011375262370914567 0.003753639186841882 0.0007181630492842332
38 0.0019431439061473048 -0.007428977869169456 0.0021542354515489753
39 0.00147372681172035 -0.014555958427639765 -0.0008833267778849227
40 -0.0037324375769809256 -0.0028999961909960815 0.009288581530481286
41 0.012156403558210042 -0.0009735806358795646 -0.005058126231780195
42 0.013714329798755465 0.004239241115311334 0.004446592638592229
43 0.021584076993117728 -0.0004305624747669961 0.008409600878145261
44 0.0054490224211573195 -0.005129448868268655 0.011398326208138404
45 0.015391855483354418 0.003616384284249644 -0.0013512304347749228
46 -0.0016665734599683197 0.002897101696860381 0.011402072557444987
47 -0.014077632374461104 0.02498498952067174 0.004911703020486143
48 0.006635272381365014 -2.9192503937343983e-05 -0.006149824239826021
49 -0.0008059786337942051 -0.003452913415650664 0.006808676127675553
50 0.009049585891149079 -0.014135822684621777 0.004277730908547763
51 -0.0009871101208139606 -0.0012310481769312708 0.003978189010747135
52 -0.004371302977536951 -0.013886144602424901 0.014879641266600959
53 0.0013898619780487046 -0.0051404978638322 0.0005639183804898161
54 0.007990886706704855 -0.005548380837023887 -0.0019724493018554645
55 -0.0011959344118870076 0.014962495719392007 -0.005538488200461558
56 0.0018817829006772633 -0.0028315563715652545 0.002490957377229656
57 -0.012795249040491079 -0.014981130882251755 0.0018609191067017728
58 0.007239978954695396 0.002021678229284952 0.017134582293628083
59 -0.011536302926273632 -0.0029961805795808375 0.00022890030528966413
60 -0.0031953770196948145 0.0003083123434500723 0.005136984266439332
61 -0.0038107437462656765 -0.01512106539888045 0.010688784319258435
62 0.005362228277696864 0.012267612704020969 -0.01393084258786105
63 0.02202860879396702 -0.0029781377036382675 -0.0006052038525397284
64 -0.005259005412810384 0.024476369445478405 -0.004636668999109734
65 -0.0012845954336784691 -0.00468318218824072 0.00691314851139499
66 0.009261201584428764 -0.008499156862368304 0.008621152064901615
67 -0.008669293755293933 0.002653441194980263 0.0038410938176387847
68 -0.010936003393086008 -0.0002282388835361159 0.001081961941404532
69 0.002327353594097385 0.004572410111219581 -0.006749137820005424
70 0.009457520426638851 -0.0016571226532469717 -0.009540504414698519
71 0.003475489803146328 -0.00603491695221719 0.0053221365543816394
72 -0.0036168185989956824 2.102615160197084e-05 -0.005823304163349175
73 -0.012580015167571299 0.021177106612278243 -0.012955107076380392
74 -0.00371271504582494 0.0010463350203868448 0.011043558378902802
75 0.00618100373528199 0.009184234644210419 -0.010595593219246708
76 0.01061596727944724 -4.307691187960768e-05 0.009970896211540634
77 -0.0043757177431313 0.0010671224540571484 -0.001042866377049688
78 -0.0036476050892172516 0.016779217939210507 -0.004107568480493706
79 0.0038936577939646055 0.013061840731707715 -0.014045577192504441
80 -0.010014434782222128 0.0009942375017924995 -0.010544593380466013
81 0.002365211957906259 -0.006193843555945652 0.008966342292100549
82 0.00023223424153712748 0.018950119186983964 9.106965777526083e-05
83 0.017320783955753816 0.015616351431521564 0.006435439521469775
84 0.010573004849312949 0.011885134784659215 0.0006841070910471521
85 -0.007892115508094448 -0.0012253369837644471 -0.016250787358034414
86 0.00556276882073626 -0.006818819162394363 -0.006105251209140683
87 -0.008113317599651925 -0.008098523272627793 -0.009707116574068765
88 -0.002044439708772881 -0.01034595879225723 0.0010642783129416707
89 -0.0193009637186779 1.933772195751676e-06 0.00021514672127116185
90 -0.0017583627756405928 -0.00436684212921789 0.00042150631993759187
91 0.002656899052118396 0.0011010854681837948 -0.004497177261556068
92 -0.013990709196832088 0.015365326541447314 0.010281048465655742
93 0.01405530442584443 -0.0008263272887354516 -0.024698027316363752
94 -0.0013435198407493205 -0.006510680586630063 -0.0035765612926189744
95 -0.006348005359363868 0.012282054002659571 -0.0018916962644292782
96 0.006698833793499508 0.012807115512057614 0.01810442740757199
97 0.012648735301684769 0.024362398144992272 -0.002812586087194561
98 -0.0015022544260306695 0.01013151726794186 0.0005983489472516373
99 -0.004697130108699993 -0.005209127965810538 -0.00546686726432851
100 -0.0067221188034495075 -0.027035036073573084 -0.005390397645345689
