# LAMMPS data file 

20 atoms
1 atom types

-10.0 10.0 xlo xhi
-10.0 10.0 ylo yhi
-10.0 10.0 zlo zhi

Atoms

1 1 7.052877683566479 -6.100217028269503 -5.9208887666277255
2 1 0.18003388414064503 2.954482843032139 -3.227598370847069
3 1 5.6765352019816255 8.593983041588743 -7.618117304824914
4 1 -2.0950755171485387 -4.376419309699029 -1.6937122307515295
5 1 6.59718579072236 -0.5284266096519641 -3.590316813511425
6 1 2.9217112697747893 0.5125329352781645 2.573402326690994
7 1 8.05488645290606 -0.4260430573970524 -2.752608038379427
8 1 -1.7646995373891698 4.190693566785539 -7.17358539925971
9 1 8.764773085487473 5.065279300210317 8.783357761873173
10 1 -5.531972228624394 -2.8187578187871676 -1.75254729823253
11 1 -4.190884781725874 8.909622751466053 -5.582234535807668
12 1 -8.768123813844062 -3.652849542224299 -4.977301093935647
13 1 7.779638517958865 2.313231860884141 -3.1905865447858677
14 1 -9.445683630561446 8.92600732450769 2.3232825954476333
15 1 -1.9633414475384576 1.6489574140336387 9.389856465641813
16 1 0.07547609857317994 -3.452112950066361 4.008064531391351
17 1 -6.933329946021221 2.917973847366291 4.487664787211159
18 1 8.239843447972774 -7.6677489332943 3.137436339446861
19 1 2.8717312922087235 9.612556030146177 0.8463685794563709
20 1 9.333276612606 0.21923995877576097 9.227515489947702

Velocities

1 -0.010855952416631594 -0.009961804856401446 0.0030672322588924245
2 0.003833652758220436 0.010704914417368433 0.013156180909522221
3 0.009682749365135503 -0.003989165010319335 -0.00022496161619520985
4 0.006806240616198225 -0.0070037026771214 -0.0034879457448764323
5 0.017077316495126414 0.011509092892585627 0.01796356716854705
6 -0.013551815379154591 0.00022451006796016476 -0.018012282996525145
7 0.0004391802752427975 -0.005541216940919927 0.006639626884317175
8 0.0036415141195103385 0.013307290236846863 0.008603360289209298
9 0.011933842432298608 0.012992494984877763 0.008699569973243306
10 0.008384496442024467 0.02117518293737456 0.011765219413770438
11 0.003903609645853778 -0.005172793242991472 -0.0074968157610259155
12 0.0013778678726674755 -0.0032206933541326192 -0.004481247446223221
13 0.015000643416789241 0.013848879575951557 0.008263792995769462
14 -0.007563338110080577 -0.0069387707568473265 0.0035643304642946597
15 -0.007717275552143524 -0.006606039283989422 -0.0033372376052734853
16 -0.0038574917036906676 -0.009396657602212354 -0.00456409312557715
17 -0.009777447024086632 0.009478249613091782 -0.011051480220959352
18 0.0036733584589300895 -0.0018345366041276198 0.0011888680964854362
19 0.02403483289683633 0.0013234614822657093 0.005445192984021414
20 -0.001166979642107362 -0.002428672252536467 -0.010213963069520684
